90
Cat214.ts34.5.log	Energy: -1743468.6116913
C         -0.64136        0.57973       -3.61921
H         -0.43763       -0.18751       -4.37108
H         -1.64739        1.00768       -3.67651
C          0.42823        1.45278       -3.23972
H          1.43824        1.27649       -3.62332
H          0.20425        2.52307       -3.14019
H          0.28132        1.51487       -1.67285
Rh         0.03927       -0.08720       -1.70192
C         -2.21599        1.67673        0.51556
C         -3.42212       -0.63240       -0.80886
C         -1.53137       -1.06769        1.22682
C          2.14315       -1.39298        1.02029
C          3.39307        0.33870       -0.93653
C          1.55685        1.45615        0.95485
P          1.76506        0.00228       -0.15416
P         -1.80042        0.01894       -0.23055
C          0.09421       -1.88842       -2.26471
O          0.04539       -2.97981       -2.63659
H         -1.31057        1.90558        1.10999
C         -3.44393        1.75654        1.42093
H         -3.40700        0.99673        2.21645
H         -4.34287        1.53246        0.82158
C         -3.58298        3.15060        2.02872
H         -4.47271        3.19165        2.67793
H         -2.71170        3.35358        2.67850
C         -3.66261        4.21962        0.94544
H         -3.72431        5.22307        1.39678
H         -4.59477        4.07867        0.36891
C         -2.46991        4.13348        0.00083
H         -1.55049        4.39254        0.55558
H         -2.56495        4.87375       -0.81027
C         -2.30774        2.73485       -0.58571
H         -3.16798        2.50107       -1.24005
H         -1.40880        2.68463       -1.21858
C         -3.66347       -0.71784       -2.18401
H         -2.86800       -0.43023       -2.87306
C         -4.42132       -1.06696        0.07560
H         -4.24178       -1.04855        1.15255
C         -4.87839       -1.19099       -2.67518
H         -5.07483       -1.26469       -3.74626
C         -5.63729       -1.54753       -0.39826
H         -6.42099       -1.89308        0.27846
C         -5.85215       -1.59543       -1.77208
F         -7.01453       -2.05515       -2.22898
C         -1.44022       -2.44849        0.97987
H         -1.61637       -2.82674       -0.03062
C         -1.29638       -0.61227        2.52805
H         -1.36396        0.45043        2.76033
C         -1.11112       -3.34262        1.98920
H         -1.03744       -4.41505        1.80051
C         -0.94447       -1.49700        3.55043
H         -0.74573       -1.14733        4.56544
C         -0.84766       -2.85026        3.26466
F         -0.48156       -3.69932        4.22440
H          1.25296       -1.42837        1.67482
C          3.39654       -1.19294        1.87391
H          3.36559       -0.23367        2.41295
H          4.27443       -1.14310        1.20749
C          3.58409       -2.34728        2.85433
H          4.48932       -2.18030        3.46040
H          2.73368       -2.37174        3.56032
C          3.66768       -3.67897        2.11930
H          3.77463       -4.51015        2.83478
H          4.57685       -3.68752        1.49115
C          2.44186       -3.89011        1.24032
H          1.55381       -3.99542        1.88714
H          2.52741       -4.83031        0.67212
C          2.21247       -2.72801        0.27790
H          3.03324       -2.69136       -0.46161
H          1.28595       -2.89016       -0.28838
C          4.39401        1.10681       -0.32631
H          4.21311        1.56281        0.64967
C          3.64666       -0.22336       -2.19408
H          2.85060       -0.79402       -2.68227
C          5.62075        1.30763       -0.95238
H          6.40733        1.90951       -0.49354
C          4.87444       -0.04412       -2.82546
H          5.08565       -0.47865       -3.80420
C          5.84575        0.72346       -2.19411
F          7.01710        0.91329       -2.79588
C          1.55213        2.73475        0.37365
H          1.79736        2.84631       -0.68566
C          1.24940        1.34970        2.31465
H          1.25096        0.37671        2.80501
C          1.22458        3.86462        1.11139
H          1.21440        4.85910        0.66189
C          0.90331        2.47303        3.06800
H          0.64633        2.39337        4.12597
C          0.88294        3.71536        2.45261
F          0.52376        4.78842        3.15351
