98
Cat290.ts34.5.log	Energy: -1981161.8281737
C          0.24186       -3.13681       -3.04049
H         -0.10576       -3.06756       -4.07451
H          1.30461       -3.37827       -2.94014
C         -0.66710       -3.61466       -2.05394
H         -1.70518       -3.82362       -2.32586
H         -0.29479       -4.27969       -1.26653
H         -0.49140       -2.54191       -0.81630
Rh        -0.42382       -1.40477       -1.96403
C          1.75862       -0.87717        0.79584
C          3.10284       -1.56164       -1.70011
C          2.00457        1.13075       -1.35359
C         -1.85997        1.45867       -0.39765
C         -3.74449       -0.37683       -1.44781
C         -2.30392       -0.99913        1.01702
P         -2.02101       -0.34577       -0.70081
P          1.59710       -0.67604       -1.01594
C         -0.74546       -0.42056       -3.53869
O         -0.93556        0.19214       -4.50042
C          2.31786       -2.02971        1.37092
H          2.74119       -2.81123        0.73715
C          1.15895        0.04430        1.66243
H          0.67458        0.93618        1.26223
C          2.32599       -2.22641        2.74464
H          2.76778       -3.12161        3.18665
C          1.15740       -0.13746        3.04471
H          0.69083        0.62007        3.67487
C          1.75642       -1.27381        3.60082
O          1.81932       -1.53746        4.91945
C          1.25381       -0.62239        5.81642
H          0.16735       -0.50762        5.65438
H          1.42093       -1.02442        6.82354
H          1.73060        0.37096        5.74433
H          3.01274       -2.60685       -1.36735
H          2.90340       -1.57962       -2.78236
C          4.46609       -1.00625       -1.43150
C          5.04861       -0.10631       -2.33668
H          4.52232        0.13981       -3.26291
C          5.19608       -1.33360       -0.27923
H          4.78418       -2.03810        0.44353
C          6.28842        0.47815       -2.09263
H          6.73754        1.18243       -2.79493
C          6.44009       -0.76427       -0.02127
H          7.00674       -1.01682        0.87671
C          6.96896        0.14549       -0.92872
F          8.15602        0.69774       -0.68401
H          2.74852        1.09811       -2.16490
H          1.08616        1.54306       -1.78978
C          2.47334        2.02684       -0.24480
C          1.65333        3.08212        0.17117
H          0.69809        3.24056       -0.33049
C          3.68964        1.83818        0.42305
H          4.34848        1.02059        0.13304
C          2.01355        3.92067        1.22306
H          1.36350        4.73614        1.54656
C          4.06984        2.66809        1.47309
H          5.01561        2.52098        1.99774
C          3.22348        3.69815        1.86615
F          3.58156        4.48700        2.88135
C         -2.05949        2.07494        0.84712
H         -2.28920        1.47825        1.73098
C         -1.59554        2.28335       -1.49646
H         -1.43068        1.83899       -2.48093
C         -1.98127        3.45277        0.98868
H         -2.12424        3.93145        1.95913
C         -1.54208        3.67140       -1.37683
H         -1.33356        4.27320       -2.26155
C         -1.72276        4.26698       -0.12146
O         -1.64212        5.58908        0.11270
C         -1.34340        6.44832       -0.95432
H         -2.11325        6.40422       -1.74431
H         -1.31702        7.46417       -0.54109
H         -0.36005        6.21774       -1.40020
H         -3.60531        0.03719       -2.45809
H         -3.98768       -1.44147       -1.58268
C         -4.80323        0.36073       -0.68970
C         -5.62324       -0.28793        0.24361
H         -5.53623       -1.36770        0.38453
C         -4.97295        1.74350       -0.85711
H         -4.35469        2.27680       -1.58202
C         -6.56572        0.40875        0.99693
H         -7.20687       -0.09718        1.72090
C         -5.90829        2.45614       -0.11454
H         -6.03854        3.53207       -0.24300
C         -6.69186        1.77878        0.81163
F         -7.58785        2.45574        1.52944
H         -1.51211       -0.55056        1.63391
H         -3.27248       -0.61845        1.37932
C         -2.21437       -2.49074        1.12533
C         -3.22405       -3.33916        0.65591
H         -4.13216       -2.91844        0.22079
C         -1.06599       -3.07592        1.67205
H         -0.26258       -2.43607        2.03915
C         -3.09688       -4.72443        0.72275
H         -3.88123       -5.38950        0.35721
C         -0.92005       -4.45805        1.74822
H         -0.02397       -4.91137        2.17595
C         -1.94060       -5.26837        1.26788
F         -1.81091       -6.59337        1.33266
