102
Cat255.ts34.5.log	Energy: -1687152.2471311
C         -0.47909        1.07760       -3.31562
H         -0.01568        0.66771       -4.21649
H         -1.57307        1.10081       -3.32654
C          0.21244        2.06926       -2.58446
H          1.19920        2.39475       -2.91569
H         -0.36776        2.84691       -2.07677
H          0.37117        1.53150       -0.98001
Rh         0.40243        0.04453       -1.62093
C         -2.69940        1.35921       -0.75107
C         -2.75811       -1.35257       -1.88001
C         -2.24547       -0.89607        1.00321
C          1.87284       -1.17351        1.33685
C          3.50588       -1.43148       -0.96418
C          3.24343        1.17206        0.26449
P          2.20185       -0.28457       -0.24854
P         -1.78317       -0.23389       -0.71132
C          0.69956       -1.54086       -2.58559
O          0.84300       -2.54359       -3.14120
C         -2.16122        2.39644        0.02802
C         -3.84243        1.62891       -1.50932
C         -3.92675        3.89161       -0.66254
C         -4.44925        2.88503       -1.46922
C         -2.77548        3.64176        0.08504
H         -1.23958        2.22934        0.59047
H         -2.34187        4.42437        0.71176
H         -4.40790        4.87174       -0.62394
H         -5.34185        3.07155       -2.07150
H         -4.28236        0.85923       -2.14430
H         -3.16136       -0.68995       -2.65790
H         -1.98558       -1.95169       -2.37700
C         -3.82521       -2.23497       -1.31437
C         -5.15982       -1.81568       -1.26180
H         -5.42701       -0.83578       -1.66318
C         -3.48957       -3.50734       -0.79928
C         -2.07326       -4.00447       -0.83311
H         -1.39298       -3.32414       -0.29645
H         -1.68645       -4.08095       -1.86190
H         -1.99124       -4.99632       -0.36815
C         -6.15409       -2.61689       -0.70679
H         -7.18732       -2.26314       -0.67879
C         -4.49959       -4.30057       -0.24526
H         -4.23753       -5.28420        0.15423
C         -5.82185       -3.86680       -0.19184
H         -6.59007       -4.50623        0.24899
H         -2.89465       -1.76527        0.82676
H         -1.31198       -1.26286        1.44534
C         -2.94784        0.06530        1.91187
C         -4.31798        0.29654        1.74344
H         -4.85568       -0.26672        0.97665
C         -2.24747        0.78025        2.90202
C         -0.78430        0.54548        3.12301
H         -0.21522        0.64115        2.18691
H         -0.58519       -0.46879        3.50523
H         -0.37062        1.26040        3.84813
C         -4.99326        1.23516        2.51557
H         -6.06068        1.40573        2.35725
C         -2.94050        1.71897        3.67400
H         -2.39474        2.27738        4.44016
C         -4.29881        1.95726        3.48397
H         -4.81438        2.70281        4.09414
C          1.03240       -2.29096        1.23881
C          2.42477       -0.86346        2.58357
C          1.30865       -2.75914        3.58993
C          2.13746       -1.64530        3.70306
C          0.75982       -3.08518        2.34844
H          0.58410       -2.52372        0.26794
H          0.10481       -3.95409        2.24689
H          1.08747       -3.37145        4.46725
H          2.57246       -1.38217        4.67023
H          3.09911       -0.01377        2.69975
H          3.01357       -2.41577       -0.99475
H          3.62441       -1.11094       -2.00751
C          4.81012       -1.49360       -0.23135
C          4.90951       -2.25009        0.94445
H          4.04431       -2.82774        1.27653
C          5.94411       -0.78598       -0.68811
C          5.94250       -0.04066       -1.99452
H          5.17012        0.74206       -2.04562
H          5.75482       -0.72006       -2.84191
H          6.91298        0.44426       -2.16741
C          6.08325       -2.28186        1.69139
H          6.13068       -2.87781        2.60586
C          7.11498       -0.82772        0.07704
H          7.99336       -0.27983       -0.27542
C          7.19070       -1.55582        1.26173
H          8.11915       -1.56754        1.83755
H          3.82643        0.89751        1.15546
H          3.97807        1.28390       -0.53955
C          2.47498        2.44299        0.46564
C          1.68258        2.60673        1.60633
H          1.67151        1.81864        2.36075
C          2.50643        3.46942       -0.50019
C          3.38206        3.37146       -1.71688
H          3.19684        2.44297       -2.27921
H          4.45068        3.37886       -1.44459
H          3.20842        4.21731       -2.39599
C          0.89827        3.74140        1.79227
H          0.27711        3.83532        2.68635
C          1.71237        4.60410       -0.30093
H          1.72795        5.39662       -1.05413
C          0.90633        4.74416        0.82608
H          0.29251        5.63938        0.95060
