100
Cat397.ts34.5.log	Energy: -1826598.5118985
C          1.47390       -0.51922       -3.25547
H          1.56856        0.31180       -3.95846
H          2.41717       -1.00604       -2.99632
C          0.27735       -1.28710       -3.27564
H         -0.54465       -0.99457       -3.93493
H          0.35847       -2.37359       -3.14520
H         -0.20829       -1.35768       -1.76907
Rh         0.31022        0.17154       -1.56887
C          0.99584       -1.57398        1.49247
O          3.07375       -1.32965       -0.10933
O          2.20275        0.80563        1.04604
C         -2.10471        2.47763       -0.58889
O         -3.12593        0.25186       -1.42561
O         -1.93950        0.11033        0.84478
P         -1.69783        0.69771       -0.68886
P          1.64271       -0.49800        0.16354
C          0.78171        1.97530       -1.92244
O          1.14174        3.05108       -2.09788
C          0.59484       -0.96268        2.68684
H          0.74736        0.11020        2.81570
C          0.76973       -2.95202        1.29606
C          1.11002       -3.64751        0.01143
H          2.19515       -3.77829       -0.09477
H          0.77542       -3.05945       -0.85694
H          0.63184       -4.63534       -0.03655
C          0.01407       -1.70484        3.70944
H         -0.29206       -1.21146        4.63429
C          0.20308       -3.68204        2.34672
H          0.03483       -4.75368        2.20914
C         -0.16744       -3.07517        3.54340
H         -0.61502       -3.67268        4.34122
C          4.05648       -0.90725       -0.96225
C          4.18966        0.42501       -1.35699
H          3.49139        1.17380       -0.98635
C          4.95966       -1.88706       -1.40914
C          4.81661       -3.30953       -0.96340
H          4.67788       -3.37204        0.12640
H          3.93749       -3.78648       -1.42656
H          5.70147       -3.89879       -1.23962
C          5.21046        0.79139       -2.23075
H          5.30052        1.83543       -2.53903
C          5.97980       -1.48703       -2.27495
H          6.69060       -2.24022       -2.62611
C          6.10884       -0.16402       -2.69559
H          6.91485        0.11826       -3.37620
C          3.33072        0.89177        1.82671
C          3.87303       -0.19881        2.50623
H          3.40427       -1.17831        2.42581
C          3.92017        2.16575        1.90335
C          3.32451        3.33138        1.17491
H          3.09833        3.09074        0.12571
H          2.37070        3.64034        1.62954
H          4.00498        4.19332        1.19550
C          5.02060       -0.02839        3.27755
H          5.44278       -0.88670        3.80523
C          5.06840        2.30300        2.68707
H          5.53997        3.28736        2.75288
C          5.62224        1.22280        3.37131
H          6.52399        1.35955        3.97207
C         -3.02608        3.01713       -1.49427
H         -3.53917        2.35063       -2.18776
C         -1.42597        3.32195        0.31862
C         -0.44171        2.80711        1.32594
H          0.39275        2.27124        0.85269
H         -0.90842        2.09545        2.02327
H         -0.02483        3.63606        1.91356
C         -3.29278        4.38292       -1.51338
H         -4.01511        4.78678       -2.22634
C         -1.71767        4.68969        0.28199
H         -1.20468        5.35130        0.98508
C         -2.63512        5.22262       -0.61981
H         -2.83373        6.29705       -0.62256
C         -3.70749       -0.98262       -1.53363
C         -3.00933       -2.10606       -1.96975
H         -1.95445       -2.01348       -2.21324
C         -5.07897       -1.05277       -1.23018
C         -5.82396        0.16998       -0.79710
H         -5.40351        0.58319        0.13169
H         -5.75615        0.96553       -1.55509
H         -6.88440       -0.05815       -0.62591
C         -3.66144       -3.33224       -2.08402
H         -3.10414       -4.20913       -2.42148
C         -5.70601       -2.29517       -1.35157
H         -6.77035       -2.36619       -1.11164
C         -5.01298       -3.43184       -1.76809
H         -5.53212       -4.38912       -1.85155
C         -3.10466        0.10737        1.57644
C         -3.69224        1.30180        2.00094
H         -3.25106        2.25405        1.71050
C         -3.64681       -1.13708        1.93532
C         -3.02108       -2.42397        1.49767
H         -3.60174       -2.87988        0.68046
H         -1.99605       -2.27007        1.14142
H         -2.99229       -3.14244        2.32938
C         -4.84812        1.27177        2.77644
H         -5.30394        2.21031        3.09965
C         -4.80924       -1.13349        2.71480
H         -5.24582       -2.09502        2.99920
C         -5.41347        0.04916        3.13186
H         -6.32103        0.01579        3.73884
