82
Cat336.ts34.5.log	Energy: -2255332.1755233
C          1.62881       -2.52849       -2.71504
H          1.33393       -2.70895       -3.75169
H          2.61759       -2.07649       -2.59084
C          1.14664       -3.40545       -1.70669
H          0.42349       -4.18585       -1.95760
H          1.81073       -3.67141       -0.87686
H          0.62734       -2.34854       -0.50566
Rh         0.03780       -1.46623       -1.71775
C          3.02543       -0.22413       -0.46165
O          1.53442        1.61866       -1.79365
O          0.68349        0.76718        0.53193
C         -2.51668        0.48629       -0.27585
O         -3.03473       -2.15562       -0.68774
O         -1.53425       -1.35412        1.24891
P         -1.73628       -1.15417       -0.39271
P          1.31185        0.22543       -0.90258
C         -0.88405       -1.16606       -3.36380
O         -1.43704       -0.98246       -4.35345
C          3.22795       -1.06450        0.64235
H          2.38834       -1.32807        1.29165
C          4.10258        0.06756       -1.30371
H          3.94409        0.68697       -2.18928
C          4.49166       -1.56650        0.92687
H          4.65461       -2.21075        1.79233
C          5.37349       -0.43352       -1.02981
H          6.21918       -0.20533       -1.68057
C          5.56126       -1.24259        0.08951
Cl         7.13701       -1.86671        0.43864
C          1.71886        2.88204       -1.28653
C          2.97582        3.48238       -1.34837
H          3.81017        2.94138       -1.79587
C          0.63554        3.56619       -0.73397
H         -0.33974        3.08013       -0.69834
C          3.15003        4.76285       -0.82612
H          4.13633        5.23098       -0.87066
C          0.82193        4.84023       -0.20743
H         -0.02702        5.36199        0.24037
C          2.07971        5.44144       -0.24551
H          2.22450        6.43994        0.17234
C          1.09302        1.57442        1.55808
C          2.39629        2.03685        1.73850
H          3.18149        1.77662        1.03136
C          0.08712        1.92879        2.46078
H         -0.92325        1.55920        2.27734
C          2.67831        2.86548        2.82332
H          3.69781        3.23634        2.95254
C          0.38489        2.75254        3.54151
H         -0.40885        3.03128        4.23889
C          1.68330        3.22677        3.72900
H          1.91679        3.87875        4.57327
C         -2.36835        1.36923       -1.34852
H         -1.78223        1.06944       -2.22052
C         -3.23863        0.89396        0.85369
H         -3.35605        0.21216        1.69751
C         -2.92706        2.64393       -1.30296
H         -2.80364        3.33966       -2.13418
C         -3.79315        2.16699        0.91405
H         -4.34979        2.49433        1.79345
C         -3.62879        3.03692       -0.16505
Cl        -4.29080        4.63305       -0.08127
C         -4.24494       -2.01564       -0.05269
C         -5.26809       -1.31466       -0.69020
H         -5.07906       -0.88260       -1.67453
C         -4.44559       -2.58030        1.20699
H         -3.63255       -3.12791        1.68622
C         -6.49950       -1.17161       -0.05607
H         -7.30073       -0.62034       -0.55376
C         -5.68161       -2.42949        1.83306
H         -5.84129       -2.87043        2.81993
C         -6.70922       -1.72405        1.20745
H         -7.67560       -1.60840        1.70306
C         -0.66970       -2.24779        1.80798
C         -0.64077       -3.58733        1.41156
H         -1.31659       -3.93265        0.62652
C          0.18648       -1.78525        2.80823
H          0.14709       -0.73223        3.09162
C          0.26368       -4.45961        2.01548
H          0.28945       -5.50564        1.70104
C          1.07904       -2.66954        3.40977
H          1.74861       -2.30471        4.19250
C          1.12723       -4.00649        3.01196
H          1.83216       -4.69530        3.48242
