96
Cat399.ts34.5.log	Energy: -1637848.3244436
C         -0.85983        3.05094       -1.74846
H         -0.90787        3.10987       -2.83939
H         -1.80546        3.28983       -1.24937
C          0.36471        3.40531       -1.10827
H          1.24861        3.62683       -1.71132
H          0.33352        3.99896       -0.18717
H          0.54995        2.22101       -0.00470
Rh         0.05372        1.20808       -1.16702
C         -0.94840        0.02346        1.96874
C         -3.15152        1.37651        0.56334
C         -2.33645       -1.25802       -0.25512
C          1.63769       -1.85612       -0.21999
C          3.21019       -0.18212       -1.87666
C          2.81157        0.62698        0.92599
P          1.89726       -0.04300       -0.54493
P         -1.60328        0.36412        0.27670
C         -0.13144        0.45972       -2.88799
O         -0.25525        0.00166       -3.94144
C         -0.49848       -1.27130        2.27536
H         -0.65655       -2.08827        1.57123
C         -0.70684        1.05944        2.90252
C         -1.09518        2.48681        2.64691
H         -2.17635        2.64734        2.76961
H         -0.82562        2.78869        1.62301
H         -0.58213        3.16148        3.34578
C          0.16087       -1.55674        3.46735
H          0.49696       -2.57748        3.66389
C         -0.05380        0.74773        4.10133
H          0.12345        1.55137        4.82211
C          0.38282       -0.54188        4.39323
H          0.89439       -0.74847        5.33608
H         -2.83358        2.42997        0.57859
H         -3.56263        1.14146        1.55549
C         -4.21744        1.18380       -0.48042
C         -5.54320        0.97005       -0.08678
H         -5.78253        0.91766        0.97856
C         -3.92487        1.21442       -1.85045
H         -2.89292        1.37105       -2.17449
C         -6.55049        0.78825       -1.03017
H         -7.57655        0.61282       -0.69811
C         -4.93044        1.02274       -2.79589
H         -4.67954        1.04137       -3.85944
C         -6.24738        0.80953       -2.39047
H         -7.03478        0.65897       -3.13302
H         -1.53920       -2.00617       -0.13461
H         -2.45681       -1.14958       -1.34262
C         -3.63037       -1.73349        0.34405
C         -3.88023       -1.72917        1.72257
H         -3.11400       -1.37014        2.41203
C         -4.63856       -2.20022       -0.50883
H         -4.47012       -2.18544       -1.58891
C         -5.10368       -2.16738        2.22654
H         -5.27854       -2.15035        3.30533
C         -5.85877       -2.64354       -0.00793
H         -6.63227       -2.99097       -0.69710
C         -6.09913       -2.62550        1.36491
H         -7.05858       -2.96565        1.76202
C          0.71186       -2.40922       -1.11855
H          0.22430       -1.74639       -1.83577
C          2.26849       -2.71451        0.71245
C          3.33193       -2.30303        1.68945
H          2.95265       -1.59868        2.44290
H          4.18866       -1.83809        1.18174
H          3.70908       -3.18528        2.22347
C          0.37893       -3.75992       -1.11351
H         -0.34629       -4.14600       -1.83327
C          1.89180       -4.06592        0.72240
H          2.36620       -4.72674        1.45288
C          0.96348       -4.59514       -0.16770
H          0.70701       -5.65629       -0.12517
H          3.48059        0.84859       -2.14749
H          2.66895       -0.59878       -2.73951
C          4.39825       -1.01667       -1.51953
C          4.37907       -2.40381       -1.72491
H          3.50785       -2.86227       -2.19880
C          5.53166       -0.45250       -0.91622
H          5.58157        0.62858       -0.76294
C          5.44562       -3.20158       -1.31973
H          5.40526       -4.28081       -1.48540
C          6.60094       -1.24921       -0.51060
H          7.47351       -0.78695       -0.04278
C          6.55832       -2.62912       -0.70392
H          7.39433       -3.25559       -0.38428
H          3.80646        0.16388        0.97042
H          2.23866        0.28043        1.79803
C          2.93120        2.12188        0.97631
C          2.30842        2.83172        2.00875
H          1.74499        2.27594        2.76059
C          3.66298        2.84757        0.02766
H          4.16450        2.32615       -0.78911
C          2.39627        4.22045        2.08498
H          1.89780        4.75077        2.90041
C          3.75439        4.23543        0.09953
H          4.32713        4.77895       -0.65580
C          3.11741        4.93006        1.12700
H          3.18647        6.01893        1.18152
