96
Cat391.ts34.5.log	Energy: -1637834.7084231
C         -1.02228        1.42954       -2.95295
H         -0.75694        1.03347       -3.93680
H         -2.09551        1.55595       -2.78504
C         -0.12650        2.32718       -2.31616
H          0.83538        2.55863       -2.78275
H         -0.54397        3.15589       -1.73288
H          0.02880        1.72088       -0.74773
Rh         0.01324        0.27830       -1.45090
C         -2.71474        1.67216        0.07160
C         -3.25910       -1.15135       -0.75862
C         -1.77306       -0.63980        1.60582
C          2.28937       -1.64895        0.59841
C          3.51607        0.26508       -1.06926
C          1.85937        1.33510        1.17247
P          1.92991        0.03672       -0.13386
P         -1.95634       -0.00428       -0.12001
C          0.31384       -1.13675       -2.65781
O          0.49398       -1.96755       -3.44018
C         -1.91812        2.55547        0.82587
H         -0.99651        2.18577        1.28165
C         -3.85005        2.18710       -0.59506
C         -4.74603        1.40032       -1.51155
H         -5.39144        0.69921       -0.96302
H         -4.18423        0.79707       -2.23636
H         -5.39851        2.08466       -2.07096
C         -2.24953        3.89232        0.99526
H         -1.60331        4.53618        1.59632
C         -4.15924        3.54648       -0.41439
H         -5.03663        3.94596       -0.93032
C         -3.39168        4.39361        0.37383
H         -3.67153        5.44412        0.48238
C         -3.00825       -1.72979       -2.00760
H         -2.09774       -1.44058       -2.53441
C         -4.43386       -1.50536       -0.05593
C         -4.82323       -0.91548        1.26787
H         -4.57978        0.15432        1.33071
H         -4.29605       -1.40897        2.09859
H         -5.90299       -1.03482        1.43618
C         -3.88069       -2.65212       -2.57678
H         -3.65589       -3.08517       -3.55399
C         -5.29524       -2.44116       -0.64275
H         -6.20796       -2.71703       -0.10707
C         -5.03093       -3.01517       -1.88332
H         -5.72889       -3.74135       -2.30731
C         -2.10578        0.11625        2.73816
H         -2.57965        1.09099        2.61617
C         -1.20642       -1.92571        1.78192
C         -0.91798       -2.84485        0.63693
H         -0.48827       -2.29759       -0.21570
H         -1.84417       -3.32118        0.27706
H         -0.21361       -3.63285        0.93453
C         -1.85035       -0.34834        4.02400
H         -2.12595        0.26374        4.88642
C         -0.93695       -2.36327        3.08550
H         -0.47252       -3.34459        3.21487
C         -1.24313       -1.58990        4.20120
H         -1.02100       -1.96183        5.20438
C          2.29719       -2.59112       -0.44877
H          2.13755       -2.24523       -1.47090
C          2.54624       -2.11015        1.91026
C          2.70450       -1.27519        3.15136
H          1.75773       -1.20897        3.71023
H          3.03785       -0.25423        2.95089
H          3.44053       -1.74931        3.81678
C          2.49874       -3.94626       -0.24235
H          2.49691       -4.63145       -1.09263
C          2.71293       -3.49551        2.09861
H          2.89789       -3.85121        3.11628
C          2.68439       -4.41111        1.05769
H          2.82691       -5.47573        1.25759
C          3.39713        0.42945       -2.45325
H          2.38900        0.44639       -2.87811
C          4.80166        0.25233       -0.48234
C          5.02671        0.09088        0.98943
H          4.80215       -0.93775        1.30995
H          4.38213        0.76276        1.57527
H          6.07177        0.30666        1.25026
C          4.51459        0.58005       -3.26974
H          4.39018        0.70600       -4.34772
C          5.91218        0.41063       -1.31963
H          6.90902        0.40939       -0.86997
C          5.78184        0.57109       -2.69700
H          6.67296        0.69072       -3.31815
C          1.06262        1.04008        2.28635
H          0.61104        0.05235        2.37107
C          2.33812        2.65593        1.00362
C          3.07158        3.13800       -0.21468
H          2.57107        2.81467       -1.13750
H          4.10113        2.75525       -0.26746
H          3.11784        4.23565       -0.21546
C          0.80655        1.98158        3.27675
H          0.18621        1.70649        4.13160
C          2.06452        3.58860        2.01394
H          2.43911        4.60828        1.88927
C          1.32630        3.26579        3.14803
H          1.13860        4.02241        3.91357
