78
Cat328.ts34.5.log	Energy: -2066586.7694081
C         -1.08955       -0.15287       -3.76293
H         -0.60020       -0.82708       -4.47091
H         -2.16641       -0.31254       -3.65138
C         -0.57178        1.16512       -3.62175
H          0.33880        1.45791       -4.15260
H         -1.27847        1.99503       -3.50849
H         -0.49554        1.37351       -1.98360
Rh         0.00718       -0.15940       -1.92109
C         -2.15288        0.93901        0.59448
C         -3.38719       -1.04793       -1.08054
C         -1.55028       -1.88853        0.84229
C          2.13714       -0.67043        0.78528
C          3.32080        0.84975       -1.31998
C          1.46052        2.11073        0.45329
P          1.69234        0.55462       -0.50638
P         -1.74914       -0.54616       -0.40301
C          0.93055       -1.74202       -2.37836
O          1.50491       -2.70079       -2.66276
C         -1.74962        1.10587        1.92328
H         -1.30848        0.26813        2.46561
C         -2.73107        2.03566       -0.06466
H         -3.03981        1.93817       -1.10933
C         -1.89353        2.33000        2.57364
H         -1.55173        2.45935        3.60157
C         -2.90645        3.25378        0.57878
H         -3.35850        4.10127        0.06070
C         -2.46941        3.39911        1.89614
Cl        -2.60953        4.93908        2.67771
C         -3.37514       -2.04751       -2.06294
C         -4.61638       -0.54515       -0.63955
C         -5.78819       -2.02413       -2.15200
C         -5.80891       -1.02821       -1.17745
C         -4.56706       -2.53720       -2.58972
H         -2.41490       -2.44018       -2.41018
H         -4.54191       -3.31994       -3.35171
H         -6.72407       -2.40145       -2.57101
H         -6.76212       -0.62543       -0.82594
H         -4.64765        0.22682        0.13261
C         -0.53337       -2.82882        0.66343
C         -2.43731       -2.04019        1.91789
C         -1.25182       -4.01953        2.63604
C         -2.27926       -3.09091        2.81695
C         -0.38924       -3.89435        1.55089
H          0.15691       -2.71174       -0.17343
H          0.41704       -4.61618        1.40501
H         -1.12565       -4.84313        3.34286
H         -2.96931       -3.19373        3.65812
H         -3.26049       -1.33340        2.05122
C          2.98813       -1.73495        0.46194
H          3.48515       -1.76161       -0.51078
C          1.51213       -0.67045        2.03787
H          0.83698        0.14287        2.30626
C          3.20140       -2.77680        1.35972
H          3.85504       -3.61123        1.10063
C          1.72567       -1.69846        2.94930
H          1.22229       -1.70175        3.91704
C          2.56311       -2.75407        2.59874
Cl         2.77800       -4.07561        3.69805
C          3.39285        0.80732       -2.71402
C          4.48029        1.12669       -0.58343
C          5.75090        1.31770       -2.62906
C          5.68790        1.35730       -1.23462
C          4.60300        1.04219       -3.36735
H          2.48215        0.57237       -3.27294
H          4.64737        1.00403       -4.45841
H          6.70062        1.49900       -3.13829
H          6.58744        1.56839       -0.65133
H          4.44437        1.15479        0.50771
C          0.59530        3.08866       -0.04523
C          2.15581        2.37401        1.64269
C          1.09696        4.53919        1.81794
C          1.96912        3.57524        2.32223
C          0.41820        4.29535        0.62706
H          0.03996        2.88810       -0.96360
H         -0.27499        5.04020        0.23061
H          0.93724        5.47521        2.35774
H          2.50926        3.75748        3.25449
H          2.83712        1.62895        2.05826
