84
Cat360.ts34.5.log	Energy: -2692536.7361190
C         -0.89873        0.06927       -3.71939
H         -0.74262       -0.80730       -4.35383
H         -1.93761        0.40784       -3.65972
C          0.14276        1.03574       -3.63939
H          1.09791        0.85480       -4.14093
H         -0.12813        2.09721       -3.62209
H          0.25355        1.33141       -2.01088
Rh         0.04150       -0.25725       -1.82177
C         -1.58017        1.83848        0.50223
C         -3.43968        0.41002       -1.16046
C         -2.19336       -0.96099        0.91177
C          1.60524       -1.37807        1.11437
C          3.41851       -0.75627       -1.00388
C          2.23271        1.35457        0.50769
P          1.79130       -0.23847       -0.30960
P         -1.76680        0.25622       -0.40338
C          0.24193       -2.10731       -2.14982
O          0.38472       -3.23185       -2.36052
C         -1.23164        1.91702        1.85510
H         -1.18360        1.00816        2.45728
C         -1.63185        3.03196       -0.23271
H         -1.88110        3.00218       -1.29770
C         -0.94351        3.14363        2.44860
H         -0.66237        3.17233        3.50511
C         -1.36668        4.25605        0.37150
H         -1.42843        5.17211       -0.22303
C         -1.00644        4.33724        1.72291
C         -0.65983        5.64822        2.36308
H         -1.00718        6.49807        1.75869
H         -1.10479        5.73625        3.36560
H          0.43187        5.74751        2.48427
C         -4.37035        1.40345       -0.83794
H         -4.11144        2.18627       -0.12159
C         -3.80831       -0.58485       -2.07620
H         -3.08608       -1.36395       -2.33717
C         -5.63681        1.41088       -1.41817
H         -6.36180        2.18728       -1.16802
C         -5.07305       -0.59634       -2.65359
H         -5.35891       -1.37425       -3.36335
C         -5.98169        0.40928       -2.32333
Cl        -7.55443        0.41396       -3.04781
C         -3.12125       -0.67342        1.92250
H         -3.59903        0.30858        1.96500
C         -1.63360       -2.23822        0.85638
H         -0.91568       -2.47047        0.06875
C         -3.44772       -1.62529        2.88177
H         -4.16009       -1.40073        3.67727
C         -1.96762       -3.21054        1.79505
H         -1.52346       -4.20527        1.74741
C         -2.86003       -2.88971        2.81238
Cl        -3.24965       -4.07650        4.01666
C          1.87015       -2.74279        0.95134
H          2.28599       -3.11145        0.01012
C          1.06196       -0.94806        2.33148
H          0.83956        0.10957        2.48199
C          1.60563       -3.64336        1.98049
H          1.82348       -4.70441        1.83036
C          0.80193       -1.85274        3.35434
H          0.37228       -1.49117        4.29273
C          1.06451       -3.21902        3.19933
C          0.73742       -4.19076        4.29341
H          1.11780       -3.84287        5.26594
H         -0.35420       -4.30742        4.39691
H          1.16426       -5.18365        4.09435
C          3.58071       -0.74988       -2.39121
H          2.71931       -0.49033       -3.01337
C          4.50380       -1.12547       -0.19860
H          4.39568       -1.16520        0.88743
C          4.79990       -1.08825       -2.97322
H          4.92538       -1.08528       -4.05707
C          5.72536       -1.47182       -0.76433
H          6.57014       -1.76643       -0.13969
C          5.86710       -1.44619       -2.15295
Cl         7.38623       -1.87714       -2.86132
C          3.05017        1.40269        1.64638
H          3.41874        0.48062        2.09956
C          1.77699        2.55800       -0.03256
H          1.12787        2.53474       -0.90957
C          3.38613        2.61505        2.23787
H          4.01230        2.64829        3.13076
C          2.11261        3.78145        0.53917
H          1.74300        4.71469        0.11308
C          2.90927        3.80079        1.67898
Cl         3.30491        5.31558        2.42434
