74
Cat314.ts34.5.log	Energy: -1330728.6587914
C         -0.63001       -3.57298       -1.24420
H         -0.47830       -4.45484       -0.61598
H         -1.64798       -3.47446       -1.63555
C          0.45730       -3.13831       -2.06576
H          1.42961       -3.63193       -1.97993
H          0.24100       -2.82068       -3.09251
H          0.45988       -1.52378       -1.83928
Rh         0.17998       -1.85250       -0.27417
C         -1.51714        1.02354       -1.38111
C         -3.29565       -1.16818       -0.89082
C         -2.16679        0.27632        1.34083
C          1.36017        0.92294        1.48237
C          3.43834       -0.87900        0.71431
C          2.18559        0.80518       -1.29641
P          1.79094       -0.26534        0.14956
P         -1.69985       -0.44553       -0.29234
C          0.36047       -2.69765        1.40143
O          0.46997       -3.17973        2.44635
C         -1.40614        2.33583       -0.90544
H         -1.54933        2.55142        0.15349
C         -1.31262        0.80218       -2.75316
H         -1.36016       -0.21669       -3.14746
C         -1.07973        3.39090       -1.75880
H         -0.98047        4.41368       -1.38971
C         -1.00547        1.84340       -3.62054
H         -0.84044        1.67325       -4.68603
C         -0.87913        3.13066       -3.10647
F         -0.55161        4.13009       -3.92469
H         -4.05636       -0.37684       -0.99603
H         -3.09800       -1.55401       -1.90552
C         -3.78804       -2.29729        0.00697
H         -4.09555       -1.88290        0.98198
H         -2.94496       -2.97430        0.22441
C         -4.94393       -3.07634       -0.60060
H         -5.80463       -2.42160       -0.81187
H         -4.64803       -3.54897       -1.55114
H         -5.28921       -3.87472        0.07370
H         -2.14064       -0.57508        2.04113
H         -1.31330        0.90452        1.64206
C         -3.47755        1.04174        1.47536
H         -4.32615        0.35599        1.31723
H         -3.56144        1.80144        0.68090
C         -3.60760        1.70643        2.83869
H         -3.56888        0.96063        3.64869
H         -2.78577        2.41899        3.01715
H         -4.55649        2.25582        2.93488
C          1.07792        2.27308        1.24422
H          1.21169        2.69835        0.24943
C          1.15677        0.42125        2.77821
H          1.33843       -0.63471        2.99162
C          0.58426        3.09683        2.25574
H          0.34921        4.14722        2.07325
C          0.67658        1.23211        3.80016
H          0.50335        0.84312        4.80502
C          0.38163        2.56218        3.52004
F         -0.11693        3.33619        4.48231
H          4.10764       -0.02273        0.90276
H          3.26157       -1.36858        1.68657
C          4.05547       -1.87331       -0.25897
H          4.23996       -1.37814       -1.22858
H          3.31243       -2.66383       -0.45981
C          5.34961       -2.48162        0.25763
H          6.11172       -1.70876        0.44749
H          5.18340       -3.02090        1.20379
H          5.77295       -3.19721       -0.46356
H          2.30000        0.10746       -2.14176
H          1.25565        1.35639       -1.51691
C          3.38313        1.74273       -1.21029
H          4.31196        1.14940       -1.17570
H          3.36011        2.31088       -0.26565
C          3.43503        2.70609       -2.38735
H          3.49186        2.16258       -3.34391
H          2.53165        3.33647       -2.42644
H          4.30872        3.37264       -2.32851
