82
Cat497.ts34.5.log	Energy: -1349908.6582451
C          0.08419       -2.40729       -2.87582
H          0.15367       -2.01654       -3.89419
H          0.82985       -3.16687       -2.62832
C         -1.19621       -2.47674       -2.26871
H         -2.06936       -2.11784       -2.81933
H         -1.42088       -3.32942       -1.61756
H         -1.11134       -1.70118       -0.84822
Rh        -0.01462       -0.71150       -1.53494
O          0.73807       -2.23798        1.46060
C          2.45297       -2.99347       -0.36022
C          2.59095       -0.27352        0.94898
O         -1.03073        2.00709        0.40243
C         -1.82063        2.22287       -2.17862
C         -3.02626        0.37206       -0.09071
P         -1.43360        0.95177       -0.86416
P          1.45536       -1.49352        0.11410
C          0.97353        0.39395       -2.68392
O          1.59535        1.08052       -3.37385
C         -0.46813       -1.88485        1.97082
C         -1.54104       -2.77140        1.85177
H         -1.39000       -3.70605        1.30789
C         -0.64780       -0.68121        2.65408
H          0.18265        0.02163        2.73284
C         -2.76905       -2.46268        2.43016
H         -3.59946       -3.16727        2.32841
C         -1.87993       -0.38787        3.23182
H         -2.00511        0.55830        3.76583
C         -2.96245       -1.26930        3.13785
C         -4.27971       -0.95861        3.78744
H         -5.12437       -1.30195        3.17139
H         -4.39964        0.12095        3.95706
H         -4.36879       -1.45773        4.76696
H          1.62415       -3.66291       -0.65851
C          3.32241       -2.75334       -1.59124
H          3.57189       -3.71270       -2.07168
H          2.81709       -2.11969       -2.33493
H          4.27150       -2.26784       -1.32456
C          3.21819       -3.68615        0.75965
H          2.60067       -3.80059        1.66079
H          3.53680       -4.68924        0.43134
H          4.12825       -3.12993        1.02832
H          1.90506        0.57718        1.09448
C          3.13978       -0.67168        2.31262
H          3.53893        0.22213        2.81935
H          2.36518       -1.11092        2.95653
H          3.95850       -1.40037        2.23246
C          3.68601        0.19738       -0.00060
H          3.28998        0.45792       -0.99337
H          4.16615        1.09924        0.40790
H          4.46800       -0.56575       -0.12670
C          0.19342        2.48499        0.71716
C          0.46791        2.69177        2.07399
H         -0.30987        2.45839        2.80329
C          1.16736        2.81363       -0.22905
H          0.97400        2.68371       -1.29275
C          1.70468        3.18520        2.47342
H          1.90019        3.33261        3.53940
C          2.39955        3.31197        0.18802
H          3.14864        3.55808       -0.56959
C          2.70308        3.49402        1.54033
C          4.05737        3.97114        1.97820
H          3.99991        4.55761        2.90692
H          4.53308        4.59673        1.20902
H          4.73477        3.12142        2.17185
H         -0.80873        2.62286       -2.37081
C         -2.29643        1.58976       -3.48181
H         -2.23866        2.32498       -4.29984
H         -1.67529        0.72272       -3.75225
H         -3.34137        1.25425       -3.41456
C         -2.70304        3.38223       -1.73698
H         -2.38626        3.79055       -0.76708
H         -2.65848        4.19399       -2.48094
H         -3.75672        3.07586       -1.65501
H         -2.64565       -0.43682        0.55425
C         -3.75823        1.36580        0.80216
H         -4.55857        0.83640        1.34373
H         -3.08529        1.81777        1.54044
H         -4.22936        2.17449        0.22635
C         -3.96789       -0.25229       -1.11395
H         -3.44685       -0.92559       -1.80730
H         -4.74024       -0.84032       -0.59350
H         -4.48628        0.51604       -1.70733
