96
Cat419.ts34.5.log	Energy: -1637858.4299314
C         -0.78463        0.42801       -3.54316
H         -0.44403       -0.31983       -4.26415
H         -1.86258        0.61595       -3.54305
C          0.09390        1.49596       -3.21457
H          1.10195        1.52228       -3.63933
H         -0.33902        2.49193       -3.06645
H          0.14276        1.53821       -1.59319
Rh         0.03052       -0.08534       -1.62252
C         -1.75937        1.13200        1.27228
C         -3.31634        0.88512       -1.09524
C         -2.60648       -1.44128        0.38741
C          1.64799       -1.29179        1.19806
C          3.42576       -0.81680       -0.99648
C          2.53181        1.38012        0.49101
P          1.87366       -0.17586       -0.23797
P         -1.87610        0.11457       -0.26250
C          0.13086       -1.91829       -2.03359
O          0.16573       -3.04828       -2.25548
C         -2.51542        0.86397        2.41812
H         -3.20959        0.02171        2.43276
C         -0.86459        2.20818        1.28534
H         -0.25169        2.39150        0.39841
C         -2.36605        1.66231        3.55045
H         -2.94866        1.44161        4.44862
C         -0.71314        3.02626        2.40959
C          0.23122        4.19186        2.39179
H          0.96090        4.09945        1.57668
H         -0.31647        5.13881        2.25185
H          0.78708        4.27249        3.33794
C         -1.47331        2.73105        3.54836
H         -1.35896        3.34615        4.44566
C         -3.92207        0.19241       -2.15625
H         -3.57290       -0.81236       -2.41179
C         -3.77885        2.16890       -0.79409
H         -3.33154        2.72886        0.03033
C         -4.96502        0.76271       -2.87483
H         -5.42739        0.19691       -3.68902
C         -4.81730        2.74026       -1.52983
H         -5.16418        3.74525       -1.27258
C         -5.43073        2.05241       -2.57972
C         -6.54101        2.66860       -3.37952
H         -7.40498        1.99021       -3.45638
H         -6.88711        3.61015       -2.93041
H         -6.21333        2.89008       -4.40862
C         -3.98072       -1.60943        0.60220
H         -4.67536       -0.81019        0.33296
C         -1.74519       -2.48579        0.74085
H         -0.67203       -2.38089        0.57357
C         -4.47207       -2.78688        1.16003
H         -5.54893       -2.89675        1.31812
C         -2.24148       -3.65410        1.31035
H         -1.54181       -4.44800        1.58552
C         -3.61295       -3.82958        1.52715
C         -4.14677       -5.10933        2.10061
H         -4.30617       -5.85850        1.30689
H         -3.44565       -5.54920        2.82508
H         -5.11221       -4.95582        2.60417
C          2.05905       -2.62740        1.12520
H          2.64448       -2.97582        0.27177
C          0.87879       -0.87221        2.29260
H          0.52340        0.15998        2.34104
C          1.71029       -3.51614        2.14134
H          2.03479       -4.55803        2.08170
C          0.52195       -1.75512        3.31482
C         -0.35636       -1.30489        4.44365
H         -0.28222       -0.22086        4.60639
H         -1.41196       -1.52460        4.21130
H         -0.10808       -1.82268        5.38191
C          0.95339       -3.08505        3.22665
H          0.68214       -3.79130        4.01634
C          3.45904       -1.11919       -2.35699
H          2.54466       -0.98705       -2.94318
C          4.59826       -0.97393       -0.24308
H          4.59786       -0.73399        0.82334
C          4.63356       -1.57985       -2.95321
H          4.63801       -1.81466       -4.02124
C          5.76308       -1.43554       -0.84030
H          6.66679       -1.55570       -0.23562
C          5.80262       -1.74788       -2.20855
C          7.07035       -2.24296       -2.84031
H          7.87887       -1.50085       -2.74284
H          7.42196       -3.16724       -2.35480
H          6.93284       -2.45417       -3.90983
C          3.04260        1.48349        1.78846
H          2.99311        0.62824        2.46567
C          2.62270        2.49624       -0.34955
H          2.22944        2.43127       -1.36741
C          3.62067        2.67226        2.22985
H          4.00865        2.73063        3.25083
C          3.21425        3.67498        0.09154
H          3.28122        4.52956       -0.58776
C          3.71960        3.78823        1.39325
C          4.30359        5.07890        1.88585
H          4.80745        5.62922        1.07794
H          3.51334        5.73715        2.28550
H          5.02963        4.91194        2.69442
