102
Cat577.ts34.5.log	Energy: -1920879.2186668
C         -1.52669       -3.74583       -0.11658
H         -1.18510       -4.47500        0.62283
H         -2.60144       -3.54866       -0.10797
C         -0.82537       -3.65108       -1.34654
H          0.06394       -4.26122       -1.52882
H         -1.40374       -3.44705       -2.25410
H         -0.48462       -2.01697       -1.54258
Rh        -0.28887       -1.98939        0.06346
O         -1.76969        0.81015       -1.16773
C         -3.56395       -1.03927       -0.67141
C         -2.49062        0.53844        1.46932
O          2.04618       -0.10245        1.20495
C          3.06763       -1.77268       -0.83967
C          1.56799        0.56820       -1.49544
P          1.62947       -0.78655       -0.25203
P         -1.97830       -0.40905       -0.01208
C          0.25939       -2.49232        1.80210
O          0.58943       -2.79748        2.86255
C         -1.41705        2.09990       -0.97197
C         -0.64916        2.52359        0.11358
H         -0.28788        1.79276        0.83578
C         -1.85015        3.02216       -1.94434
C         -2.66247        2.54427       -3.10566
H         -2.94391        3.37746       -3.76443
H         -2.09880        1.80623       -3.69825
H         -3.57797        2.03832       -2.76115
C         -0.33936        3.87362        0.26414
H          0.24055        4.19419        1.13301
C         -1.50514        4.36409       -1.78067
H         -1.83796        5.08430       -2.53375
C         -0.76334        4.80140       -0.68238
H         -0.52218        5.86083       -0.56887
C         -3.91418       -0.88263       -2.01137
H         -3.26828       -0.27844       -2.64960
C         -4.38217       -1.82955        0.15856
O         -3.95835       -1.97031        1.43006
C         -4.69038       -2.75198        2.32838
H         -5.70964       -2.35500        2.47857
H         -4.14951       -2.71593        3.28225
H         -4.75967       -3.80206        1.99354
C         -5.06907       -1.47279       -2.52624
H         -5.33135       -1.33483       -3.57742
C         -5.54354       -2.41763       -0.35017
H         -6.18536       -3.02156        0.29191
C         -5.88165       -2.23354       -1.69149
H         -6.79000       -2.69910       -2.08157
C         -1.83954        0.27901        2.67346
H         -1.07163       -0.49798        2.68460
C         -3.47280        1.54858        1.42330
O         -4.06968        1.75535        0.23814
C         -4.91518        2.85791        0.07230
H         -5.80961        2.79068        0.71584
H         -5.23401        2.84890       -0.97740
H         -4.38615        3.80440        0.27755
C         -2.14056        0.99700        3.82939
H         -1.61899        0.77904        4.76342
C         -3.76561        2.28443        2.57679
H         -4.50998        3.08039        2.55064
C         -3.10111        2.00247        3.76967
H         -3.34134        2.58618        4.66201
C          3.19125        0.22736        1.86221
C          4.35740       -0.53464        1.80244
H          4.38166       -1.44024        1.19975
C          3.10653        1.33675        2.72460
C          1.81260        2.07181        2.87065
H          1.48534        2.46756        1.90032
H          1.01149        1.39993        3.21603
H          1.90349        2.90056        3.58626
C          5.48118       -0.14971        2.53171
H          6.39017       -0.75333        2.46985
C          4.24676        1.69746        3.44589
H          4.18851        2.56179        4.11393
C          5.43757        0.97838        3.34513
H          6.31456        1.28338        3.92033
C          2.92651       -3.16150       -0.84645
H          1.98378       -3.56732       -0.46588
C          4.27531       -1.21319       -1.31377
O          4.38817        0.11818       -1.23496
C          5.60196        0.73757       -1.54749
H          6.41716        0.37493       -0.89795
H          5.45672        1.80954       -1.36833
H          5.88067        0.58669       -2.60457
C          3.94068       -3.99779       -1.31104
H          3.80868       -5.08137       -1.30008
C          5.29165       -2.04689       -1.79133
H          6.22618       -1.62279       -2.15885
C          5.11764       -3.43100       -1.78820
H          5.92280       -4.06829       -2.16273
C          0.93247        0.22285       -2.69004
H          0.51939       -0.78418       -2.78751
C          2.07040        1.87850       -1.35976
O          2.69283        2.19354       -0.21125
C          3.27737        3.45494       -0.06105
H          4.03719        3.64783       -0.83938
H          3.76580        3.44957        0.92206
H          2.52539        4.26167       -0.09412
C          0.79287        1.12580       -3.74001
H          0.29486        0.82100       -4.66247
C          1.90870        2.79694       -2.40328
H          2.26221        3.82092       -2.28993
C          1.27243        2.42130       -3.58265
H          1.14582        3.15884       -4.37882
