80
Cat534.ts34.5.log	Energy: -2862091.7059363
C          1.97506       -2.40097       -2.19601
H          1.88146       -2.34041       -3.28326
H          3.00245       -2.34401       -1.82490
C          1.01812       -3.16294       -1.47409
H          0.17351       -3.61710       -1.99949
H          1.35462       -3.73923       -0.60581
H          0.52325       -2.16357       -0.22464
Rh         0.62481       -0.96760       -1.31142
O          2.80784       -0.54585        1.37885
C          3.82127        0.50321       -0.86061
C          1.77933        1.76236        0.64456
O         -1.61780        1.34299       -0.76305
C         -2.87507       -1.08189       -1.00940
C         -1.51729       -0.35324        1.37914
P         -1.33539       -0.28117       -0.43685
P          2.21576        0.12957       -0.05450
C          0.30040       -0.07717       -2.95545
O          0.07480        0.47995       -3.93746
C          2.61130       -1.86727        1.65574
C          3.50954       -2.82639        1.18598
H          4.36471       -2.50813        0.58616
C          1.51218       -2.24988        2.42490
H          0.82039       -1.48399        2.77700
C          3.30964       -4.17239        1.48593
H          3.99681       -4.94328        1.13280
C          1.30627       -3.59263        2.72624
H          0.45273       -3.91452        3.32543
C          2.20767       -4.53876        2.25058
F          2.01217       -5.82597        2.53586
C          4.99958        0.63014       -0.11484
H          4.97053        0.48556        0.96740
C          3.86978        0.67449       -2.24681
H          2.95773        0.55131       -2.83578
C          6.20496        0.92792       -0.74094
H          7.12773        1.02438       -0.16638
C          5.06797        0.98613       -2.88382
H          5.10936        1.12275       -3.96553
C          6.23037        1.10884       -2.12477
Cl         7.72806        1.48063       -2.90817
C          1.06545        2.65601       -0.16112
H          0.82011        2.38399       -1.19015
C          2.04801        2.10289        1.97460
H          2.59269        1.40204        2.60929
C          0.60646        3.86407        0.35268
H          0.02997        4.55242       -0.26695
C          1.58961        3.30757        2.50124
H          1.78322        3.57452        3.54169
C          0.86079        4.17627        1.68872
Cl         0.24914        5.65465        2.35114
C         -2.84501        1.94764       -0.78716
C         -3.31898        2.63722        0.32990
H         -2.71225        2.68332        1.23420
C         -3.60297        1.90574       -1.95971
H         -3.20958        1.37029       -2.82559
C         -4.55984        3.26917        0.28075
H         -4.95184        3.81757        1.13910
C         -4.84322        2.53246       -2.01224
H         -5.45542        2.50852       -2.91533
C         -5.30965        3.20319       -0.88702
F         -6.49898        3.80158       -0.93214
C         -2.82963       -1.85146       -2.17577
H         -1.86340       -1.99775       -2.66848
C         -4.10671       -0.89182       -0.36505
H         -4.16430       -0.29217        0.54614
C         -3.98651       -2.41884       -2.70233
H         -3.95506       -3.02018       -3.61213
C         -5.26909       -1.45240       -0.87965
H         -6.23052       -1.30173       -0.38655
C         -5.20083       -2.21201       -2.04942
Cl        -6.64504       -2.90896       -2.69402
C         -1.06893        0.71012        2.16973
H         -0.70542        1.62383        1.69694
C         -1.95721       -1.52675        2.00413
H         -2.29811       -2.37357        1.40310
C         -1.06436        0.61243        3.55824
H         -0.70905        1.44151        4.17208
C         -1.96164       -1.63501        3.39119
H         -2.30934       -2.54590        3.88131
C         -1.51113       -0.56238        4.16257
Cl        -1.49981       -0.69691        5.88624
