112
Cat66.ts34.5.log	Energy: -1455778.0450025
C         -1.79946        0.76890       -2.96466
H         -1.49283        0.33533       -3.92037
H         -2.85962        0.63023       -2.73149
C         -1.15475        1.96297       -2.53335
H         -0.34525        2.39127       -3.13016
H         -1.76425        2.73035       -2.04181
H         -0.68534        1.67998       -0.98516
Rh        -0.39548        0.15099       -1.45978
C         -2.47501        0.65516        1.46107
C         -3.65666       -0.96804       -0.57511
C         -1.62040       -2.08872        1.20620
C          2.38611       -1.28101        0.10535
C          3.01042        1.14985       -1.37267
C          1.48352        1.26996        1.26053
P          1.64554        0.35627       -0.36172
P         -1.98048       -0.57418        0.15892
C          0.22244       -1.29717       -2.47881
O          0.62035       -2.19469       -3.09047
H         -3.13039        0.18602        2.21533
H         -1.54583        0.93405        1.98327
C         -3.11920        1.91118        0.89482
H         -2.47308        2.31008        0.09433
H         -4.07986        1.66221        0.41147
C         -3.35635        2.99303        1.93897
H         -2.39858        3.23846        2.43210
H         -4.01113        2.59887        2.73758
C         -3.96397        4.26542        1.36592
H         -3.30780        4.64598        0.56289
H         -4.92244        4.02023        0.87479
C         -4.18313        5.35229        2.40567
H         -4.62113        6.25912        1.96182
H         -3.23413        5.64169        2.88551
H         -4.86244        5.01101        3.20345
H         -3.90633       -0.01750       -1.08339
C         -4.79370       -1.27053        0.40075
H         -4.87243       -0.49116        1.17456
H         -4.58483       -2.21696        0.93090
C         -6.12760       -1.39508       -0.33433
H         -6.93052       -1.64383        0.37913
H         -6.38993       -0.41139       -0.76473
C         -6.06775       -2.43026       -1.45172
H         -7.02587       -2.46319       -1.99566
H         -5.92891       -3.43290       -1.00744
C         -4.91494       -2.14870       -2.40923
H         -5.10527       -1.20135       -2.94593
H         -4.85355       -2.93410       -3.17999
C         -3.59008       -2.04130       -1.66194
H         -3.37036       -3.01741       -1.19550
H         -2.75829       -1.82587       -2.35012
H         -2.59896       -2.48211        1.53861
C         -0.80601       -1.76323        2.46165
H         -1.34086       -1.04244        3.09758
H          0.13692       -1.27184        2.16373
C         -0.48543       -3.01306        3.27709
H          0.13004       -2.74124        4.15067
H         -1.42715       -3.42854        3.67962
C          0.21073       -4.07872        2.44041
H          0.39309       -4.98294        3.04365
H          1.20471       -3.70853        2.13004
C         -0.60603       -4.41473        1.19932
H         -1.55204       -4.89697        1.50684
H         -0.07311       -5.14904        0.57372
C         -0.91410       -3.16618        0.38012
H          0.02027       -2.73869       -0.01540
H         -1.50908       -3.43007       -0.50546
H          1.80812       -1.61724        0.98086
H          2.08362       -1.95562       -0.71108
C          3.87620       -1.46634        0.36019
H          4.44905       -1.17853       -0.53731
H          4.22627       -0.80740        1.17013
C          4.21147       -2.90934        0.71651
H          3.85131       -3.57638       -0.08765
H          3.64546       -3.20264        1.61998
C          5.69571       -3.15176        0.95097
H          6.25655       -2.85792        0.04597
H          6.05004       -2.47868        1.75198
C          6.02212       -4.59218        1.31057
H          7.10082       -4.73705        1.47361
H          5.71056       -5.28317        0.51084
H          5.50175       -4.90149        2.23142
H          3.37420        0.28339       -1.96016
C          4.20367        1.74341       -0.61858
H          4.62697        1.02198        0.09235
H          3.86122        2.60528       -0.02163
C          5.29019        2.21685       -1.58147
H          6.12897        2.65303       -1.01442
H          5.70044        1.34295       -2.11980
C          4.74606        3.21998       -2.59055
H          5.53506        3.52345       -3.29780
H          4.43707        4.13737       -2.05679
C          3.54772        2.64633       -3.33677
H          3.88231        1.79760       -3.96073
H          3.13003        3.39369       -4.03098
C          2.46257        2.15834       -2.38358
H          2.02376        3.01836       -1.84611
H          1.63711        1.68547       -2.93503
H          0.56361        0.79568        1.64841
C          1.15145        2.75012        1.06181
H          0.34223        2.84969        0.32099
H          2.02663        3.27681        0.64455
C          0.75343        3.41142        2.37705
H          0.54949        4.48247        2.21543
H         -0.19400        2.96596        2.73008
C          1.82140        3.22174        3.44702
H          1.50047        3.67629        4.39834
H          2.74044        3.75485        3.14219
C          2.14143        1.74501        3.64290
H          1.24781        1.22988        4.04068
H          2.93435        1.61716        4.39777
C          2.55709        1.07767        2.33325
H          3.51561        1.50464        1.99814
H          2.73223        0.00560        2.51034
