88
Cat682.ts34.5.log	Energy: -1446702.5064195
C          1.01524       -1.19039       -3.21631
H          1.04686       -0.54437       -4.09785
H          1.97225       -1.65906       -2.96547
C         -0.19289       -1.90117       -2.94634
H         -1.07842       -1.72645       -3.56456
H         -0.11939       -2.93953       -2.60289
H         -0.44089       -1.66754       -1.34229
Rh         0.06479       -0.14718       -1.60734
C          1.73647       -1.82834        1.12537
C          3.49663       -0.30266       -0.58935
C          1.80834        1.04206        1.22608
C         -1.83381        2.16474        0.24985
C         -3.37038        0.03302       -0.92797
C         -1.69978       -0.52688        1.33302
P         -1.70137        0.39632       -0.25077
P          1.75553       -0.35261        0.02123
C          0.13843        1.54058       -2.44203
O          0.17038        2.59815       -2.90894
H          2.56413       -1.79698        1.85326
H          0.80107       -1.75062        1.70344
C          1.75995       -3.13834        0.35141
H          2.67865       -3.19365       -0.25800
H          0.92087       -3.13694       -0.36371
C          1.66549       -4.35371        1.26000
H          2.51387       -4.39779        1.96191
H          0.74278       -4.32462        1.86095
H          1.66281       -5.29100        0.68272
C          3.75079        0.32827       -1.80979
H          2.91113        0.72422       -2.38633
C          4.57141       -0.82541        0.14016
H          4.39420       -1.30988        1.10396
C          5.05862        0.43862       -2.28024
H          5.25213        0.93834       -3.23272
C          5.88590       -0.73669       -0.32451
C          7.02682       -1.31856        0.45960
H          6.69802       -1.67261        1.44684
H          7.47777       -2.17382       -0.06965
H          7.82599       -0.57703        0.61429
C          6.11518       -0.09219       -1.54763
H          7.13749       -0.00809       -1.92769
C          1.90647        0.87823        2.61100
H          1.99312       -0.11594        3.05098
C          1.68869        2.33804        0.70828
H          1.59117        2.46605       -0.37336
C          1.86050        1.99262        3.44935
H          1.92187        1.85671        4.53239
C          1.64901        3.46423        1.53252
C          1.52019        4.83935        0.94429
H          2.50022        5.34263        0.89890
H          1.12243        4.79923       -0.07981
H          0.85519        5.47535        1.54787
C          1.72659        3.27233        2.91926
H          1.67904        4.13688        3.58750
H         -0.89605        2.38389        0.78791
H         -1.76150        2.72621       -0.69635
C         -3.04966        2.61343        1.04651
H         -3.18594        1.96374        1.92707
H         -3.95628        2.48316        0.43399
C         -2.92740        4.06234        1.49560
H         -2.04919        4.20361        2.14655
H         -2.80823        4.73781        0.63335
H         -3.81672        4.38890        2.05595
C         -3.53712        0.06771       -2.31430
H         -2.66219        0.25423       -2.94455
C         -4.47625       -0.23154       -0.10945
H         -4.34769       -0.26988        0.97576
C         -4.79893       -0.14774       -2.86726
H         -4.92962       -0.11870       -3.95189
C         -5.74381       -0.46037       -0.65043
C         -6.92336       -0.74827        0.23317
H         -6.63432       -0.77448        1.29310
H         -7.70606        0.01822        0.11578
H         -7.38218       -1.71814       -0.01648
C         -5.88914       -0.41176       -2.04392
H         -6.87334       -0.58988       -2.48710
C         -1.29143        0.05237        2.53739
H         -1.03752        1.11189        2.59000
C         -1.98109       -1.89961        1.30079
H         -2.28121       -2.35955        0.35398
C         -1.16746       -0.73706        3.68109
H         -0.83216       -0.28056        4.61564
C         -1.87378       -2.69942        2.43979
C         -2.21437       -4.16060        2.38588
H         -3.28604       -4.32217        2.59016
H         -2.00367       -4.58620        1.39413
H         -1.64912       -4.73545        3.13378
C         -1.45469       -2.09735        3.63524
H         -1.34894       -2.70729        4.53666
