86
Cat736.ts34.5.log	Energy: -1882558.0479369
C         -0.86821        0.89735       -3.25843
H         -0.51865        0.31143       -4.11270
H         -1.95318        1.02845       -3.20061
C         -0.02652        1.92403       -2.75141
H          0.97501        2.06784       -3.16692
H         -0.48671        2.85808       -2.41248
H         -0.04538        1.67874       -1.13058
Rh         0.01612        0.10296       -1.46739
C         -1.99640        1.15172        1.25290
C         -3.54421        0.06297       -0.92497
C         -2.16852       -1.64080        0.80219
C          1.92351       -0.82730        1.43773
C          3.47523       -0.36131       -0.90357
C          2.31069        1.83743        0.48610
P          1.89144        0.15011       -0.12273
P         -1.89665       -0.06704       -0.11518
C          0.37525       -1.58738       -2.22626
O          0.60361       -2.61604       -2.69518
C         -1.70555        0.80370        2.57451
H         -1.52677       -0.24493        2.82005
C         -2.17932        2.51934        0.94542
O         -2.38135        2.80576       -0.35549
C         -2.58505        4.13402       -0.75018
H         -3.47752        4.56992       -0.26892
H         -2.74136        4.11464       -1.83585
H         -1.70791        4.76436       -0.52221
C         -1.61992        1.76943        3.57853
H         -1.38421        1.47025        4.60174
C         -2.12492        3.48638        1.95281
H         -2.28584        4.53899        1.71882
C         -1.84243        3.10584        3.26638
H         -1.79166        3.87051        4.04512
C         -4.62512        0.78760       -0.41160
H         -4.51401        1.34789        0.51979
C         -3.71867       -0.65395       -2.11533
H         -2.87508       -1.21507       -2.52770
C         -5.85320        0.80082       -1.06855
H         -6.70493        1.36265       -0.68032
C         -4.94241       -0.65861       -2.77823
H         -5.09093       -1.21611       -3.70477
C         -5.99523        0.07553       -2.24533
F         -7.16777        0.08674       -2.87797
C         -1.19890       -2.64251        0.75308
H         -0.29283       -2.46848        0.17060
C         -3.34254       -1.86823        1.53642
H         -4.11886       -1.10035        1.57466
C         -1.38232       -3.84793        1.42928
H         -0.63394       -4.64124        1.40493
C         -3.53856       -3.06314        2.21752
H         -4.44643       -3.25563        2.79208
C         -2.54871       -4.04027        2.15414
F         -2.73050       -5.18870        2.80362
C          1.79899       -0.26091        2.70671
H          1.73899        0.82421        2.80559
C          2.00568       -2.23270        1.33420
O          2.07993       -2.71627        0.07956
C          2.30463       -4.08094       -0.14540
H          3.25954       -4.40858        0.29951
H          2.34104       -4.20889       -1.23363
H          1.48636       -4.70231        0.25684
C          1.75742       -1.05708        3.85258
H          1.65681       -0.59113        4.83493
C          1.99477       -3.03186        2.47835
H          2.07442       -4.11616        2.39640
C          1.86192       -2.43853        3.73403
H          1.84149       -3.07136        4.62437
C          3.58252       -0.31740       -2.29557
H          2.70607       -0.01964       -2.87859
C          4.58311       -0.76829       -0.14929
H          4.51265       -0.81114        0.94078
C          4.77055       -0.66749       -2.93328
H          4.86779       -0.64270       -4.02013
C          5.77429       -1.12813       -0.77158
H          6.64541       -1.45424       -0.20016
C          5.85102       -1.07115       -2.15975
F          6.98834       -1.41743       -2.75923
C          3.58512        2.40172        0.36128
H          4.39377        1.83310       -0.10053
C          1.29430        2.60521        1.07185
H          0.28966        2.19053        1.16439
C          3.84176        3.69684        0.80936
H          4.82971        4.14946        0.70666
C          1.53973        3.89097        1.53988
H          0.75006        4.48225        2.00640
C          2.81602        4.42378        1.39774
F          3.05705        5.66000        1.83104
