64
Cat7.ts34.5.log	Energy: -1154544.9820684
C          0.41752       -2.69965        1.89981
H          0.38573       -3.67775        1.41244
H          1.33474       -2.51688        2.46923
C         -0.80995       -2.14504        2.37531
H         -1.75153       -2.66423        2.17624
H         -0.80974       -1.62362        3.33866
H         -0.76260       -0.56780        1.84354
Rh        -0.13900       -1.18432        0.48336
C          2.28164        0.54597        2.44016
O          3.21145       -0.44244        0.25580
O          1.62378        1.57433       -0.00383
C         -0.84932        0.97299       -2.16175
O         -2.93985       -0.13549       -1.08402
O         -1.73063        1.63817        0.34865
P         -1.43627        0.31432       -0.57508
P          1.73121        0.10718        0.75738
C         -0.08694       -2.36093       -1.00563
O         -0.04505       -3.04631       -1.93228
H          1.50177        1.15607        2.91719
H          2.39796       -0.38639        3.01150
H          3.24270        1.08007        2.43981
C          3.32300       -1.22768       -0.93329
H          2.39682       -1.10559       -1.52507
C          3.46929       -2.68641       -0.55134
H          2.59405       -3.01175        0.02774
H          4.37184       -2.82971        0.06298
H          3.54792       -3.32026       -1.44738
C          4.50113       -0.70115       -1.72725
H          4.35633        0.35581       -1.99303
H          5.42636       -0.78214       -1.13609
H          4.63112       -1.27725       -2.65559
C          2.68937        2.52239       -0.06596
H          3.63083        2.01706        0.21503
C          2.41124        3.66896        0.88826
H          2.33810        3.31833        1.92664
H          1.46000        4.15523        0.62500
H          3.21306        4.42115        0.83605
C          2.80031        2.98786       -1.50497
H          2.96789        2.13375       -2.17640
H          1.87172        3.49153       -1.81622
H          3.63372        3.69608       -1.62629
H          0.11639        1.46334       -1.98044
H         -0.69961        0.11692       -2.83460
H         -1.56702        1.66718       -2.62075
C         -3.64534       -1.20150       -0.44435
H         -2.89925       -1.96691       -0.15746
C         -4.59679       -1.77618       -1.47067
H         -4.04188       -2.12166       -2.35462
H         -5.32330       -1.01466       -1.79464
H         -5.15049       -2.62894       -1.05035
C         -4.33635       -0.70538        0.81051
H         -3.60029       -0.30582        1.52378
H         -5.05719        0.09105        0.56721
H         -4.88102       -1.52598        1.30183
C         -2.48964        2.75911       -0.10793
H         -3.03871        2.47408       -1.02346
C         -1.54679        3.90950       -0.40643
H         -0.80823        3.63089       -1.17042
H         -0.99987        4.19001        0.50644
H         -2.10407        4.78845       -0.76430
C         -3.49841        3.10101        0.96992
H         -4.16901        2.25137        1.15548
H         -2.97953        3.34242        1.91025
H         -4.10612        3.96914        0.67344
