104
Cat723.ts34.5.log	Energy: -1734051.3638246
C         -0.97537       -3.44357       -1.32213
H         -1.15894       -4.25981       -0.61954
H         -1.81549       -3.23439       -1.99159
C          0.35513       -3.22983       -1.78986
H          1.18140       -3.81289       -1.37396
H          0.50390       -2.96254       -2.84253
H          0.55852       -1.61088       -1.63979
Rh        -0.22920       -1.74852       -0.23160
C         -1.86030        0.40821       -2.58831
O         -3.43143       -0.82200       -0.91262
O         -1.91080        1.09553        0.04849
C          0.83722        0.70572        2.01989
O          2.73821       -0.93285        1.19597
O          1.81862        0.73202       -0.56247
P          1.29297       -0.34128        0.60401
P         -1.84109       -0.28907       -0.90121
C         -0.62429       -2.52541        1.46500
O         -0.85809       -2.96325        2.50267
H         -2.82178        0.89867       -2.80266
H         -1.80176       -0.48260       -3.23567
C         -0.66858        1.33961       -2.79637
H         -0.97150        2.36102       -2.51329
H          0.14997        1.06187       -2.11019
C         -0.09209        1.35147       -4.21380
H         -0.92424        1.50587       -4.92664
C          0.88691        2.51018       -4.36593
H          0.39595        3.47792       -4.17872
H          1.32270        2.54206       -5.37663
H          1.71608        2.41484       -3.64501
C          0.58686        0.02693       -4.54902
H          0.98381        0.02898       -5.57589
H         -0.10175       -0.82829       -4.46542
H          1.42810       -0.15679       -3.85966
C         -3.91463       -1.64715        0.06736
C         -3.72262       -1.35546        1.41641
H         -3.17048       -0.45454        1.69312
C         -4.62096       -2.78415       -0.32241
H         -4.75668       -2.98665       -1.38619
C         -4.21616       -2.21340        2.40518
C         -3.93948       -1.92878        3.85186
H         -4.02391       -0.85472        4.07492
H         -4.62897       -2.47407        4.51163
H         -2.91277       -2.23873        4.10705
C         -5.13066       -3.62883        0.65855
H         -5.68862       -4.52145        0.36524
C         -4.92669       -3.35130        2.00992
H         -5.32301       -4.02889        2.77038
C         -2.63430        2.23591       -0.16323
C         -3.94271        2.22198       -0.64582
H         -4.41573        1.26636       -0.87680
C         -2.01921        3.44604        0.17327
H         -1.00266        3.43496        0.56949
C         -4.64652        3.42076       -0.82114
C         -6.04984        3.38784       -1.35399
H         -6.07146        3.01203       -2.38963
H         -6.68628        2.71755       -0.75574
H         -6.50716        4.38690       -1.34898
C         -2.71975        4.63490        0.00798
H         -2.24337        5.58192        0.27312
C         -4.02220        4.62687       -0.49149
H         -4.56352        5.56749       -0.61955
H          0.23987        0.03218        2.65851
H          0.10645        1.40698        1.58504
C          1.91698        1.39956        2.83810
H          2.61375        0.63772        3.22119
H          2.51657        2.06610        2.19937
C          1.36560        2.22229        4.00557
H          0.76744        1.54629        4.64593
C          2.51782        2.76740        4.84171
H          3.16446        1.95709        5.21284
H          2.15218        3.33422        5.71195
H          3.14595        3.44583        4.24027
C          0.45644        3.35281        3.53365
H          0.11386        3.96635        4.38117
H         -0.44194        2.98058        3.01858
H          0.99490        4.01582        2.83495
C          3.38966       -1.96791        0.58136
C          3.58510       -1.98713       -0.79894
H          3.20586       -1.16140       -1.40453
C          3.86402       -3.00772        1.38104
H          3.68963       -2.97024        2.45747
C          4.24712       -3.05995       -1.40775
C          4.41890       -3.07878       -2.89915
H          4.93213       -2.17132       -3.25393
H          5.00168       -3.95008       -3.22846
H          3.44143       -3.11445       -3.40705
C          4.53440       -4.06763        0.78039
H          4.90870       -4.88782        1.39769
C          4.72168       -4.09901       -0.60233
H          5.24260       -4.94257       -1.06222
C          2.56597        1.85733       -0.33552
C          3.92651        1.76213       -0.05246
H          4.38981        0.77533        0.00458
C          1.93794        3.09995       -0.42852
H          0.87687        3.14259       -0.67764
C          4.67944        2.91690        0.18926
C          6.13654        2.80433        0.53179
H          6.27347        2.31976        1.51192
H          6.67386        2.19127       -0.20795
H          6.61906        3.79054        0.57369
C          2.68540        4.24993       -0.19495
H          2.20473        5.22905       -0.26012
C          4.04122        4.16050        0.12030
H          4.61693        5.07055        0.30686
