52
Cat092.ts34.5.log	Energy: -1052032.2931091
C         -1.05521       -2.68618       -0.76328
H         -0.71490       -3.52824       -0.15436
H         -2.13961       -2.57339       -0.83795
C         -0.25340       -2.33702       -1.90182
H          0.69241       -2.85604       -2.08065
H         -0.76993       -2.06768       -2.83011
H         -0.05831       -0.75974       -1.83780
Ir         0.00168       -0.89417       -0.15736
C         -2.15648        2.02770       -0.93898
O         -3.20880       -0.48536       -0.63241
O         -2.43668        0.86513        1.41425
C          2.07712        1.86405        0.99048
O          3.29216       -0.30837        0.12513
O          2.09782        1.09000       -1.66931
P          1.84747        0.43173       -0.17463
P         -1.91358        0.39050       -0.08438
C          0.49362       -1.62854        1.51048
O          0.78048       -2.07929        2.53725
H         -2.53954        1.70517       -1.92538
C         -3.16523        2.96145       -0.27637
H         -3.28230        3.87134       -0.88718
H         -4.15815        2.51281       -0.14991
H         -2.81303        3.26084        0.72085
C         -0.82979        2.74282       -1.15950
H         -0.08142        2.10085       -1.64341
H         -0.98369        3.63310       -1.78996
H         -0.41335        3.09064       -0.20063
C         -4.55334       -0.08444       -0.54406
H         -4.78455        0.35322        0.44091
H         -4.81412        0.64656       -1.32877
H         -5.17614       -0.97967       -0.68724
C         -2.36049       -0.03269        2.49917
H         -2.80349       -1.01111        2.24982
H         -1.31740       -0.19535        2.81169
H         -2.92265        0.41502        3.33072
H          1.73702        2.72050        0.38086
C          1.14168        1.73769        2.18919
H          1.22155        2.63483        2.82296
H          0.09361        1.62069        1.88121
H          1.40583        0.86588        2.80830
C          3.51584        2.10484        1.43625
H          4.20975        2.23825        0.59622
H          3.56104        3.01075        2.06200
H          3.88348        1.25684        2.03056
C          3.57024       -1.58581       -0.40171
H          2.68530       -2.24079       -0.32252
H          3.87091       -1.52190       -1.46140
H          4.39901       -2.01146        0.18086
C          3.24577        1.83948       -1.98923
H          3.21325        2.84769       -1.54119
H          4.16677        1.33292       -1.65719
H          3.27336        1.94788       -3.08259
