84
Cat062.ts34.5.log	Energy: -1159095.6618244
C         -1.81239       -1.17647       -2.57101
H         -1.32671       -1.73305       -3.37777
H         -2.72519       -1.65780       -2.20513
C         -1.80695        0.26090       -2.67870
H         -1.27082        0.73867       -3.50349
H         -2.73786        0.79056       -2.43789
H         -1.37929        0.79257       -1.27018
Ir        -0.33401       -0.52957       -1.14300
C         -2.44189        0.06964        1.75007
C         -2.88926       -2.44422        0.43746
C         -0.54493       -2.08147        2.14636
C          2.73981        0.04181        0.45162
C          2.19518        1.89151       -1.74809
C          0.71561        2.13956        0.90459
P          1.33827        0.92728       -0.38070
P         -1.51248       -1.21720        0.78726
C          0.97007       -1.75754       -1.70985
O          1.78559       -2.52075       -2.02650
H         -2.86572       -0.36232        2.67290
H         -1.69281        0.81172        2.06842
C         -3.51692        0.77004        0.93402
H         -3.08764        1.05698       -0.04147
H         -4.33959        0.06967        0.70716
C         -4.08495        2.00619        1.61647
H         -3.25924        2.70709        1.83793
H         -4.51068        1.72627        2.59744
C         -5.14334        2.72236        0.78958
H         -4.71065        2.99283       -0.19013
H         -5.96556        2.01928        0.56699
C         -5.70047        3.96533        1.46410
H         -6.46113        4.46052        0.84174
H         -4.90483        4.70099        1.66477
H         -6.17003        3.71925        2.43020
H         -3.48214       -1.90796       -0.32444
C         -2.35367       -3.71765       -0.20728
H         -3.17595       -4.29233       -0.66293
H         -1.61348       -3.49158       -0.98881
H         -1.87695       -4.37113        0.53999
C         -3.81079       -2.76186        1.60851
H         -4.31276       -1.87041        2.01118
H         -4.59902       -3.46212        1.28652
H         -3.27151       -3.24865        2.43688
H         -1.27620       -2.72372        2.66785
C          0.55464       -2.96199        1.56526
H          1.04303       -3.53969        2.36705
H          0.18025       -3.66893        0.81403
H          1.31631       -2.34766        1.06619
C          0.03147       -1.10892        3.17004
H         -0.74461       -0.57482        3.73544
H          0.65402       -1.65457        3.89743
H          0.67765       -0.35678        2.69138
H          2.35647       -0.22964        1.44890
H          2.81472       -0.91168       -0.09459
C          4.13381        0.64454        0.56938
H          4.53395        0.85988       -0.43538
H          4.10825        1.60851        1.10141
C          5.09562       -0.29190        1.29022
H          5.11978       -1.26398        0.76530
H          4.70378       -0.50991        2.30079
C          6.51008        0.25904        1.40475
H          6.89609        0.47505        0.39272
H          6.47807        1.23305        1.92496
C          7.46575       -0.67615        2.12782
H          8.47886       -0.25142        2.19402
H          7.54427       -1.64513        1.60920
H          7.12322       -0.88130        3.15494
H          2.92526        1.14087       -2.10434
C          1.25480        2.18393       -2.91039
H          1.81028        2.66151       -3.73366
H          0.79945        1.25493       -3.27730
H          0.44049        2.86449       -2.61601
C          2.95557        3.14993       -1.33942
H          3.66824        2.98254       -0.52315
H          3.52600        3.53205       -2.20175
H          2.26812        3.95178       -1.03163
H          0.13145        1.44624        1.53213
C          1.73188        2.81720        1.81647
H          1.19908        3.39159        2.59233
H          2.37095        2.08947        2.33650
H          2.38164        3.52172        1.28008
C         -0.27258        3.13368        0.30648
H         -1.01900        2.62424       -0.32075
H         -0.81042        3.66434        1.10874
H          0.23037        3.89461       -0.30898
