76
Cat098.ts34.5.log	Energy: -1593185.2149329
C         -0.45602       -2.70171       -2.01413
H         -0.40058       -3.73588       -1.66080
H         -1.35358       -2.49815       -2.61046
C          0.78344       -2.09390       -2.44572
H          1.72648       -2.62946       -2.30014
H          0.77296       -1.53403       -3.39026
H          0.71701       -0.66574       -1.85574
Ir         0.07873       -1.32887       -0.44708
C         -2.15078        0.67754       -2.38674
C         -3.38281       -0.76740       -0.20888
C         -1.90845        1.51257        0.47797
C          1.58198        0.51658        2.35277
C          3.39276       -0.70457        0.45389
C          1.88012        1.60207       -0.32512
P          1.69942        0.00625        0.56134
P         -1.79680        0.06567       -0.64999
C         -0.13800       -2.60719        0.92369
O         -0.31906       -3.41300        1.73584
H         -2.12021       -0.29237       -2.91735
C         -3.51954        1.29377       -2.64934
H         -3.62271        1.52423       -3.72223
H         -4.33457        0.61002       -2.37598
H         -3.67440        2.23356       -2.09878
C         -1.00440        1.52120       -2.93754
H         -0.02805        1.07235       -2.70522
H         -1.09236        1.60993       -4.03178
H         -0.99236        2.54171       -2.52811
C         -4.50943       -0.04167        0.20619
H         -4.45501        1.04544        0.29750
C         -3.47871       -2.16115       -0.28803
H         -2.59532       -2.73503       -0.57409
C         -5.70190       -0.68497        0.52177
H         -6.58228       -0.13083        0.85238
C         -4.66747       -2.81937        0.01639
H         -4.74906       -3.90641       -0.03738
C         -5.76578       -2.07014        0.41741
F         -6.90353       -2.69086        0.71984
C         -2.04103        2.85028        0.09170
H         -2.10741        3.11810       -0.96151
C         -1.82654        1.22404        1.85027
H         -1.71597        0.18255        2.16678
C         -2.07980        3.87486        1.03856
H         -2.17941        4.92080        0.74235
C         -1.87341        2.23081        2.80699
H         -1.81464        2.01053        3.87456
C         -1.99328        3.55268        2.38534
F         -2.02958        4.52423        3.29424
H          0.65642        1.11504        2.37552
C          1.37608       -0.70508        3.23773
H          1.30225       -0.39385        4.29171
H          0.46138       -1.25370        2.98134
H          2.22318       -1.40549        3.15911
C          2.74234        1.37053        2.84639
H          2.93699        2.23900        2.20057
H          2.51849        1.74958        3.85650
H          3.66825        0.77990        2.91423
C          4.55112        0.08666        0.44687
H          4.47084        1.17549        0.46078
C          3.52981       -2.09714        0.41471
H          2.62229       -2.70833        0.38958
C          5.81392       -0.49603        0.40359
H          6.72355        0.10712        0.38826
C          4.78706       -2.69497        0.38545
H          4.90575       -3.77963        0.35739
C          5.91418       -1.88312        0.37862
F          7.11999       -2.44338        0.33721
C          2.53862        1.62927       -1.56354
H          3.02130        0.72347       -1.93974
C          1.25604        2.77043        0.12406
H          0.71649        2.78322        1.07242
C          2.58328        2.78841       -2.32964
H          3.09492        2.81907       -3.29327
C          1.28937        3.93922       -0.63443
H          0.80079        4.85239       -0.29012
C          1.95346        3.93368       -1.85278
F          1.98778        5.04625       -2.58314
