104
Cat084.ts34.5.log	Energy: -1730072.4190339
C         -1.05147       -3.17004       -1.42404
H         -0.75633       -4.07803       -0.89032
H         -2.13199       -3.07055       -1.57024
C         -0.18255       -2.73345       -2.48544
H          0.74768       -3.27992       -2.66988
H         -0.65337       -2.38814       -3.41431
H          0.07654       -1.22333       -2.26158
Ir        -0.01277       -1.48533       -0.57948
C         -1.83097        1.31893       -1.85482
C         -3.45157       -0.91498       -1.01496
C         -2.28258        0.76487        1.01527
C          1.68095        1.58601       -0.89004
C          2.33527        0.10812        1.50699
C          3.41959       -0.67227       -1.09694
P          1.86958       -0.13670       -0.24890
P         -1.89457       -0.04548       -0.59733
C          0.18267       -2.32458        1.08440
O          0.23041       -2.84044        2.12313
H         -0.80773        1.71093       -1.77286
H         -1.83863        0.77176       -2.81199
C         -2.83281        2.46957       -1.84619
H         -2.90373        2.88784       -2.86627
H         -3.83571        2.09576       -1.59386
C         -2.44365        3.58571       -0.88295
H         -1.52563        4.08048       -1.25198
H         -2.17340        3.15280        0.09389
C         -3.53378        4.62501       -0.67363
H         -3.80033        5.08368       -1.64279
H         -4.44710        4.11087       -0.32545
C         -3.14673        5.70436        0.32407
H         -3.95145        6.44254        0.46350
H         -2.24831        6.25063       -0.00638
H         -2.91981        5.26456        1.30885
C         -4.11598       -0.78115       -2.23314
H         -3.76895       -0.04514       -2.96041
C         -3.92251       -1.88424       -0.10145
O         -3.23095       -1.97871        1.04647
C         -3.44854       -3.05070        1.91766
H         -4.44014       -2.99214        2.40079
H         -2.66671       -2.98695        2.68465
H         -3.35882       -4.01899        1.39541
C         -5.22681       -1.56777       -2.54859
H         -5.72950       -1.44035       -3.50971
C         -5.03202       -2.67414       -0.40949
H         -5.39116       -3.41983        0.30068
C         -5.68372       -2.50885       -1.63319
H         -6.55153       -3.13035       -1.86690
C         -1.26550        0.82234        1.96593
H         -0.31177        0.35547        1.71534
C         -3.54676        1.29106        1.36387
O         -4.52673        1.20736        0.44268
C         -5.84428        1.51758        0.79106
H         -6.18374        0.92751        1.65983
H         -6.46192        1.25947       -0.07883
H         -5.97207        2.59156        1.01585
C         -1.44801        1.41830        3.21369
H         -0.62117        1.44481        3.92604
C         -3.74294        1.87697        2.61831
H         -4.71700        2.28696        2.88632
C         -2.69191        1.94754        3.53365
H         -2.86311        2.41235        4.50799
H          1.31132        1.42936       -1.91707
H          0.82784        2.01348       -0.33532
C          2.86293        2.54131       -0.90026
H          3.29819        2.62325        0.10781
H          3.66198        2.12462       -1.53566
C          2.47702        3.92372       -1.40928
H          1.67119        4.33666       -0.77408
H          2.03953        3.83489       -2.42078
C          3.64053        4.90448       -1.44656
H          4.07569        4.98466       -0.43445
H          4.44196        4.48851       -2.08270
C          3.25198        6.28571       -1.94844
H          4.11245        6.97189       -1.96335
H          2.47627        6.73861       -1.30994
H          2.84638        6.23871       -2.97201
C          2.06059        1.28759        2.19764
H          1.62476        2.13682        1.66914
C          2.88734       -0.97525        2.22076
O          3.16423       -2.06890        1.49260
C          3.50150       -3.26685        2.13325
H          4.46402       -3.18784        2.66888
H          3.59540       -4.02202        1.34306
H          2.70969       -3.57639        2.83536
C          2.31252        1.40456        3.56609
H          2.08741        2.33972        4.08320
C          3.12772       -0.87036        3.59267
H          3.53881       -1.71519        4.14560
C          2.84175        0.32134        4.25892
H          3.03510        0.39440        5.33192
C          3.28999       -1.49683       -2.21259
H          2.28390       -1.81347       -2.49150
C          4.71850       -0.28858       -0.69776
O          4.81519        0.51554        0.37679
C          6.06869        0.87126        0.87972
H          6.66181       -0.01520        1.16483
H          5.88050        1.47591        1.77620
H          6.64861        1.47097        0.15567
C          4.39640       -1.93314       -2.94140
H          4.26028       -2.57471       -3.81436
C          5.83434       -0.73931       -1.41143
H          6.83896       -0.45186       -1.10037
C          5.66890       -1.55446       -2.53078
H          6.55130       -1.89427       -3.07886
