66
Cat125.ts34.5.log	Energy: -1339969.9505682
C         -0.64372       -1.24587       -3.28268
H         -0.14169       -2.14844       -3.64116
H         -1.73517       -1.27149       -3.34315
C          0.02950        0.00578       -3.48842
H          1.04261        0.01565       -3.89915
H         -0.56617        0.86882       -3.80654
H         -0.06600        0.78510       -2.08158
Ir         0.12395       -0.70326       -1.33567
O         -3.18551       -0.69938       -1.47467
C         -2.40965       -1.37110        1.09137
C         -2.37190        1.31955        0.12810
O          0.63985        0.04394        1.80516
C          3.00074       -0.54822        0.61989
C          1.74387        2.02384        0.29291
P          1.37531        0.22770        0.31981
P         -1.96323       -0.38925       -0.39390
C          0.98650       -2.38077       -1.12062
O          1.49947       -3.40728       -0.98619
C         -4.54803       -0.70598       -1.12752
H         -4.78951       -1.54334       -0.45217
H         -4.85651        0.23831       -0.64474
H         -5.12068       -0.82739       -2.05833
C         -1.65348       -2.51031        1.38383
C         -3.48450       -1.03535        1.92757
C         -3.03903       -2.96663        3.30759
C         -3.79712       -1.82933        3.02867
C         -1.96694       -3.30553        2.48386
H         -0.80560       -2.75477        0.73993
H         -1.36597       -4.19188        2.70067
H         -3.28324       -3.58728        4.17340
H         -4.63519       -1.55637        3.67467
H         -4.07246       -0.13621        1.72910
C         -2.85099        2.21561       -0.83809
C         -2.03866        1.80560        1.39853
C         -2.66840        4.04344        0.73248
C         -2.18496        3.15905        1.69571
C         -3.00322        3.56681       -0.53564
H         -3.09474        1.84406       -1.83719
H         -3.38409        4.25328       -1.29614
H         -2.78135        5.10427        0.96821
H         -1.91499        3.52662        2.68881
H         -1.64674        1.11817        2.14987
C          1.09953        0.68697        2.96962
H          2.17063        0.49638        3.15584
H          0.94190        1.77747        2.91677
H          0.52052        0.28140        3.81205
C          4.10196       -0.23363       -0.18652
C          3.11187       -1.57740        1.56077
C          5.41168       -1.93847        0.91589
C          4.31416       -2.26756        1.70789
C          5.30194       -0.92120       -0.03374
H          4.01457        0.54979       -0.94405
H          6.15659       -0.66716       -0.66538
H          6.35302       -2.48112        1.03048
H          4.39012       -3.07249        2.44287
H          2.24394       -1.84659        2.16750
C          0.82047        2.88724       -0.30756
C          2.86618        2.56926        0.93259
C          2.13496        4.79928        0.35883
C          3.06279        3.94830        0.95874
C          1.01139        4.26597       -0.27068
H         -0.05898        2.46943       -0.80297
H          0.27456        4.92346       -0.73754
H          2.28980        5.88086        0.38187
H          3.94613        4.36015        1.45282
H          3.59720        1.91159        1.40856
