108
Cat173.ts34.5.log	Energy: -1685085.0959064
C         -1.19838       -4.38752       -0.97328
H         -1.08549       -5.23200       -0.28746
H         -2.23123       -4.23581       -1.30592
C         -0.15047       -4.19438       -1.94924
H          0.74870       -4.81524       -1.90206
H         -0.44521       -3.97507       -2.98229
H          0.10790       -2.63394       -1.94550
Ir        -0.08559       -2.68190       -0.27296
O         -1.56352        0.14352       -1.39799
C         -3.49513       -1.74324       -0.67003
C         -1.92724       -0.22157        1.34295
O          1.30256        0.10003        0.90355
C          3.21146       -1.95061        0.57909
C          2.11465       -0.34593       -1.66041
P          1.63833       -1.19031       -0.07372
P         -1.77246       -1.09506       -0.30232
C          0.28536       -3.42165        1.42840
O          0.51628       -3.83303        2.48619
C         -2.60934        0.99991       -1.82217
H         -3.24602        0.46221       -2.55024
H         -3.24614        1.28895       -0.97148
C         -2.04253        2.24110       -2.47065
H         -1.39400        2.74888       -1.74078
H         -1.40275        1.95280       -3.32229
C         -3.13277        3.20293       -2.92021
H         -3.76811        3.45122       -2.05137
H         -3.79488        2.70166       -3.64895
C         -2.57898        4.48223       -3.52582
H         -1.94909        5.02111       -2.79980
H         -1.95386        4.26976       -4.40776
H         -3.38213        5.16508       -3.84184
H         -3.59270       -1.69912       -1.76613
H         -3.40159       -2.80804       -0.41393
C         -4.69841       -1.17537        0.01914
C         -5.05442       -1.64404        1.29334
H         -4.46249       -2.43582        1.76096
C         -5.50281       -0.19608       -0.57006
H         -5.26075        0.15968       -1.57418
C         -6.15873       -1.11990        1.95726
H         -6.42456       -1.49457        2.94867
C         -6.61333        0.34841        0.08374
C         -7.42372        1.42367       -0.58000
H         -6.81030        2.32096       -0.76172
H         -7.80701        1.09021       -1.55710
H         -8.28270        1.72253        0.03676
C         -6.93078       -0.12283        1.36135
H         -7.79625        0.28681        1.88915
H         -2.62317       -0.82489        1.94443
H         -0.92453       -0.34921        1.77033
C         -2.30028        1.22955        1.34252
C         -1.33189        2.18483        1.01048
H         -0.31972        1.85283        0.77306
C         -3.59535        1.66371        1.65117
H         -4.35431        0.92706        1.92412
C         -1.66858        3.53532        0.95947
H         -0.90619        4.27278        0.69360
C         -3.94787        3.01561        1.60310
C         -5.33869        3.45968        1.95581
H         -6.03022        2.60678        1.99576
H         -5.35859        3.95362        2.94137
H         -5.72752        4.18531        1.22467
C         -2.96830        3.94955        1.24018
H         -3.22595        5.01152        1.19148
C          1.89199        0.54239        2.10588
H          1.08167        0.63238        2.85098
H          2.59255       -0.21173        2.50354
C          2.58331        1.87597        1.91725
H          3.33191        1.78040        1.11428
H          1.84385        2.60452        1.54817
C          3.23726        2.40016        3.18573
H          3.97841        1.66684        3.55384
H          2.48203        2.48482        3.98716
C          3.91529        3.74467        2.97636
H          4.69014        3.67829        2.19603
H          3.19016        4.50610        2.64836
H          4.39394        4.11042        3.89731
H          3.05163       -2.09574        1.65972
H          3.15439       -2.95826        0.14233
C          4.54168       -1.33231        0.27516
C          5.24349       -1.73150       -0.87062
H          4.82310       -2.50574       -1.51826
C          5.12697       -0.37190        1.10627
H          4.61455       -0.07251        2.02243
C          6.47776       -1.16537       -1.17832
H          7.01731       -1.49111       -2.07087
C          6.35977        0.21630        0.80984
C          6.92815        1.28407        1.69760
H          8.02748        1.28347        1.68111
H          6.59518        2.28116        1.36443
H          6.59802        1.16261        2.73923
C          7.03079       -0.19252       -0.34867
H          8.00170        0.24635       -0.59441
H          2.90230       -0.96279       -2.11958
H          1.21030       -0.44161       -2.27706
C          2.51170        1.09496       -1.55442
C          1.50430        2.06009       -1.45439
H          0.46329        1.73423       -1.46605
C          3.84664        1.51106       -1.54287
H          4.64194        0.76749       -1.62715
C          1.82991        3.40710       -1.33310
H          1.03355        4.15286       -1.25795
C          4.19087        2.86165       -1.41761
C          5.62994        3.29197       -1.42536
H          5.88621        3.80577       -2.36653
H          5.84214        3.99783       -0.60706
H          6.30360        2.43025       -1.32101
C          3.16410        3.80680       -1.30479
H          3.41511        4.86654       -1.20264
