86
Cat268.ts34.5.log	Energy: -1534754.4666421
C          1.94565       -1.77339       -1.98877
H          1.63314       -2.05531       -2.99806
H          2.84098       -1.14364       -1.95681
C          1.77537       -2.75290       -0.94888
H          1.27596       -3.70013       -1.17085
H          2.58340       -2.86398       -0.21683
H          1.09516       -1.97017        0.29254
Ir         0.22844       -1.09768       -0.85225
C          3.12077        0.72937       -0.01767
O          1.19847        2.16141       -1.07181
O          0.88678        1.36553        1.34259
C         -2.77306        0.24188        0.36994
O         -2.62358       -2.36752        0.43205
O         -1.15125       -1.06627        2.10941
P         -1.56947       -1.10876        0.53414
P          1.30550        0.79890       -0.14856
C         -0.91468       -1.01490       -2.36337
O         -1.62485       -0.94170       -3.27408
C          3.98097        1.46856       -0.84083
H          3.55229        2.17959       -1.54946
C          3.67763       -0.18162        0.88473
H          3.01653       -0.77598        1.52312
C          5.35602        1.30732       -0.75359
H          6.03786        1.87764       -1.38742
C          5.05694       -0.34911        0.98687
H          5.45763       -1.06471        1.70517
C          5.90680        0.39921        0.16144
O          7.25044        0.30907        0.17608
C          7.85953       -0.58496        1.06448
H          7.55636       -1.62889        0.86967
H          8.94201       -0.49574        0.90821
H          7.63017       -0.33981        2.11666
C          0.18646        2.32247       -2.07275
H         -0.64563        1.63631       -1.83643
C          0.76229        1.94448       -3.42175
H          1.12506        0.90669       -3.39649
H          1.60198        2.60709       -3.68521
H         -0.00460        2.02004       -4.20701
C         -0.30651        3.75183       -2.00817
H         -0.75883        3.96587       -1.02966
H          0.52285        4.45709       -2.17269
H         -1.07118        3.92612       -2.77948
C          1.51625        2.51268        1.92696
H          2.34863        2.83299        1.27602
C          2.06925        2.10475        3.27690
H          2.82493        1.31523        3.16128
H          1.26102        1.71994        3.91690
H          2.53811        2.96340        3.78095
C          0.50467        3.63854        2.01403
H          0.13452        3.89579        1.01244
H         -0.35057        3.34528        2.64285
H          0.96225        4.53717        2.45470
C         -2.34285        1.55072        0.64576
H         -1.32262        1.71314        1.00255
C         -4.06954        0.04553       -0.10279
H         -4.40959       -0.96878       -0.31856
C         -3.19399        2.62671        0.46429
H         -2.87522        3.64836        0.68091
C         -4.93268        1.12457       -0.29990
H         -5.93922        0.93894       -0.67534
C         -4.49798        2.42348       -0.01565
O         -5.25108        3.52866       -0.17172
C         -6.55632        3.39405       -0.66016
H         -7.18423        2.77969        0.00913
H         -6.97871        4.40548       -0.71264
H         -6.57265        2.94740       -1.66994
C         -2.27619       -3.60995       -0.18579
H         -1.33106       -3.44946       -0.73869
C         -3.37281       -3.95471       -1.17033
H         -3.45863       -3.16828       -1.93455
H         -4.34179       -4.05271       -0.65563
H         -3.15299       -4.90569       -1.67845
C         -2.05679       -4.66104        0.88246
H         -1.25115       -4.35310        1.56500
H         -2.97269       -4.81830        1.47384
H         -1.77347       -5.62130        0.42521
C         -2.09614       -0.88272        3.16848
H         -3.04991       -0.52783        2.73796
C         -1.54136        0.18808        4.08411
H         -1.39766        1.12627        3.53072
H         -0.56521       -0.12517        4.48490
H         -2.22527        0.37428        4.92566
C         -2.33001       -2.20906        3.86276
H         -2.75397       -2.93774        3.15936
H         -1.38096       -2.60869        4.25233
H         -3.02866       -2.08801        4.70451
