74
Cat343.ts34.5.log	Energy: -1779005.8820497
C          3.59956       -0.49238       -1.31869
H          4.49287       -0.58362       -0.69417
H          3.47770       -1.32352       -2.02216
C          3.26522        0.83337       -1.79108
H          3.83213        1.69318       -1.42222
H          2.99675        0.94898       -2.84886
H          1.71489        0.90926       -1.61549
Ir         1.90370        0.10348       -0.14464
C         -1.02757       -0.89225       -1.81845
C          1.04374       -2.87440       -1.94995
C         -0.40841       -2.48716        0.51850
C         -0.89520        0.82457        1.84544
C          1.05641        2.90910        1.84469
C         -0.60634        2.50569       -0.51137
P          0.36616        1.59188        0.75487
P          0.38985       -1.54205       -0.84763
C          2.70127       -0.21639        1.53220
O          3.14603       -0.41034        2.58655
C         -2.33856       -0.84020       -1.33051
H         -2.59630       -1.32522       -0.38899
C         -0.75365       -0.24821       -3.03585
H          0.26706       -0.24866       -3.42842
C         -3.33538       -0.13709       -2.00705
H         -4.34985       -0.08385       -1.60756
C         -1.73809        0.44175       -3.73123
H         -1.51154        0.95093       -4.66938
C         -3.02709        0.51199       -3.19833
Cl        -4.24466        1.43698       -4.01347
H          0.20935       -3.48353       -2.33538
H          1.49266       -2.36494       -2.81963
C          2.08964       -3.73990       -1.25605
H          1.60357       -4.34307       -0.47086
H          2.80457       -3.08583       -0.72974
C          2.82750       -4.65787       -2.21775
H          2.13333       -5.33139       -2.74559
H          3.37044       -4.07850       -2.98195
H          3.56380       -5.28329       -1.69060
H          0.42320       -2.76924        1.18498
H         -0.98424       -1.74603        1.09531
C         -1.26513       -3.70114        0.17970
H         -0.63483       -4.48593       -0.26990
H         -2.00836       -3.44282       -0.59246
C         -1.97141       -4.25711        1.40824
H         -1.24551       -4.55738        2.18070
H         -2.63631       -3.50683        1.86578
H         -2.58042       -5.13985        1.16075
C         -0.45147        0.14666        2.99185
H          0.60750        0.15767        3.26098
C         -2.25330        0.75258        1.51759
H         -2.63639        1.25958        0.63182
C         -1.32743       -0.59596        3.77450
H         -0.97179       -1.13477        4.65401
C         -3.14179        0.00206        2.28647
H         -4.19684       -0.06499        2.01514
C         -2.67049       -0.67903        3.40501
Cl        -3.75697       -1.65861        4.33193
H          0.23173        3.52777        2.23696
H          1.50354        2.38404        2.70540
C          2.11382        3.75258        1.14692
H          1.65939        4.28788        0.29468
H          2.86366        3.06986        0.71181
C          2.78244        4.74998        2.07947
H          2.05130        5.45109        2.51314
H          3.28319        4.23565        2.91505
H          3.54263        5.34544        1.55139
H          0.13907        2.82886       -1.25594
H         -1.20756        1.74179       -1.03202
C         -1.46581        3.68370       -0.07070
H         -0.81695        4.49315        0.30306
H         -2.10295        3.39850        0.78265
C         -2.33220        4.20653       -1.20782
H         -1.71385        4.53784       -2.05726
H         -3.01107        3.42659       -1.58899
H         -2.94661        5.06171       -0.88817
