68
Cat350.ts34.5.log	Energy: -1153064.7010989
C          3.34123       -1.55098        0.28572
H          4.25840       -1.01011        0.53656
H          3.16214       -2.41851        0.93058
C          3.03260       -1.69314       -1.12114
H          3.64799       -1.17202       -1.86042
H          2.72135       -2.68263       -1.47988
H          1.49863       -1.42524       -1.19241
Ir         1.72306       -0.18540       -0.06826
C         -1.30929       -1.93379        0.43831
C          0.68265       -2.55703        2.39773
C         -0.68792       -0.01930        2.52138
C         -0.96756        2.06340       -0.44005
C          1.12180        2.44812       -2.33988
C         -0.64953        0.15762       -2.61733
P          0.30160        1.11360       -1.36046
P          0.10921       -1.16827        1.31482
C          2.56983        1.33014        0.66281
O          3.04336        2.28760        1.11785
C         -2.59954       -1.39480        0.43325
H         -2.83666       -0.52695        1.04967
C         -1.06036       -3.03856       -0.39223
H         -0.05248       -3.46114       -0.43942
C         -3.59907       -1.93460       -0.37849
H         -4.59604       -1.48406       -0.36843
C         -2.06135       -3.58268       -1.18511
H         -1.83463       -4.44318       -1.82148
C         -3.35414       -3.03663       -1.20000
C         -4.42859       -3.62882       -2.06383
H         -5.33280       -3.00407       -2.06828
H         -4.08914       -3.74348       -3.10511
H         -4.71705       -4.63137       -1.70752
H          1.12524       -3.30725        1.72246
C          1.70652       -2.09996        3.42589
H          1.25132       -1.45507        4.19282
H          2.51204       -1.52258        2.94768
H         -0.18821       -3.03550        2.87397
H          2.15745       -2.96006        3.94419
H         -1.22172        0.72989        1.91554
C         -1.58573       -0.62189        3.59167
H         -1.01953       -1.25474        4.29091
H         -2.38516       -1.24392        3.16262
H          0.15198        0.53431        2.97033
H         -2.06489        0.17230        4.18568
C         -0.53231        3.03223        0.47848
H          0.53481        3.23991        0.59105
C         -2.33712        1.79469       -0.51191
H         -2.71640        1.03438       -1.19570
C         -1.43820        3.70642        1.28675
H         -1.06919        4.45117        1.99766
C         -3.24127        2.46767        0.31113
H         -4.30683        2.23056        0.24086
C         -2.81275        3.43461        1.22329
C         -3.78156        4.16862        2.10270
H         -4.78979        3.73536        2.04331
H         -3.46186        4.14648        3.15599
H         -3.85515        5.22905        1.81096
H          1.56330        3.13053       -1.59609
C          2.20073        1.91186       -3.26512
H          1.78377        1.25458       -4.04467
H          2.93417        1.32555       -2.68993
H          0.35331        3.02061       -2.88443
H          2.73009        2.73326       -3.77133
H         -1.32357       -0.50118       -2.04473
C         -1.38601        0.94298       -3.69152
H         -0.68697        1.46948       -4.35826
H         -2.06535        1.69725       -3.26769
H          0.09286       -0.52080       -3.06608
H         -1.98873        0.26722       -4.31799
