96
Cat392.ts34.5.log	Energy: -1633972.1730332
C          0.79647       -0.23443       -3.30396
H          0.51427        0.54005       -4.02279
H          1.85739       -0.50596       -3.34442
C         -0.16212       -1.28379       -3.05862
H         -1.16449       -1.21723       -3.49317
H          0.20634       -2.31802       -3.03773
H         -0.16839       -1.46464       -1.54063
Ir        -0.03297        0.21473       -1.37118
C          2.06746       -1.45528        1.07649
C          3.52557       -0.01733       -0.94919
C          2.27707        1.43632        1.03908
C         -2.36888        1.55668        0.96828
C         -3.45108       -0.15098       -1.07497
C         -2.13132       -1.32517        1.14416
P         -1.93480        0.07318       -0.03135
P          1.91054       -0.00868       -0.05561
C         -0.36480        2.02933       -1.74478
O         -0.57649        3.14653       -1.96246
C          1.96284       -1.28460        2.46437
H          1.87982       -0.27841        2.87558
C          2.18049       -2.76525        0.55542
C          2.29421       -3.05295       -0.91449
H          3.34524       -3.19438       -1.21260
H          1.89902       -2.23134       -1.52478
H          1.74956       -3.97338       -1.17441
C          1.96779       -2.37090        3.33385
H          1.87447       -2.20488        4.40953
C          2.21087       -3.84092        1.44974
H          2.31255       -4.85252        1.04611
C          2.10222       -3.65891        2.82498
H          2.11975       -4.52178        3.49529
C          3.67474        0.88294       -2.00897
H          2.82778        1.50930       -2.30160
C          4.61459       -0.80902       -0.56980
H          4.51217       -1.50030        0.27177
C          4.89501        0.97927       -2.67300
H          5.00982        1.68917       -3.49588
C          5.84178       -0.73239       -1.23637
C          6.99210       -1.61058       -0.83488
H          7.92962       -1.03830       -0.76301
H          6.81072       -2.09168        0.13671
H          7.15782       -2.41015       -1.57588
C          5.96741        0.17516       -2.29492
H          6.92012        0.25409       -2.82643
C          3.45074        1.48755        1.80216
H          4.14770        0.64638        1.79848
C          1.42276        2.53887        1.03766
H          0.50985        2.49103        0.44316
C          3.73546        2.61933        2.56042
H          4.64929        2.65485        3.15890
C          1.70520        3.69429        1.77409
C          0.78437        4.87890        1.72270
H          1.31715        5.77698        1.37170
H         -0.06141        4.69662        1.04623
H          0.37403        5.11258        2.71786
C          2.87237        3.71451        2.54455
H          3.11625        4.60491        3.13162
C         -3.29045        2.47256        0.44248
H         -3.79142        2.24965       -0.50131
C         -1.71177        1.85018        2.18434
C         -0.70881        0.93029        2.81196
H         -0.19724        0.31632        2.06043
H         -1.18790        0.23247        3.51680
H          0.05168        1.50464        3.35894
C         -3.57772        3.66399        1.10114
H         -4.29554        4.36427        0.66816
C         -2.02775        3.04913        2.83422
H         -1.52236        3.27829        3.77663
C         -2.94675        3.95156        2.30833
H         -3.16335        4.88231        2.83822
C         -3.44208        0.32137       -2.39072
H         -2.52927        0.78053       -2.77958
C         -4.61278       -0.75873       -0.58297
H         -4.63246       -1.14618        0.43743
C         -4.58119        0.20061       -3.18564
H         -4.56828        0.57940       -4.21068
C         -5.75799       -0.89763       -1.37131
C         -6.98815       -1.56962       -0.83290
H         -7.19259       -2.51111       -1.36803
H         -6.88051       -1.80833        0.23434
H         -7.87759       -0.93118       -0.95124
C         -5.72804       -0.40432       -2.68217
H         -6.61481       -0.50228       -3.31520
C         -2.98226       -1.23772        2.25189
H         -3.49354       -0.29805        2.47642
C         -1.48154       -2.53248        0.87664
H         -0.79773       -2.58512        0.02532
C         -3.16992       -2.34874        3.07118
H         -3.82682       -2.27632        3.94164
C         -1.68424       -3.66428        1.67154
C         -1.03013       -4.97382        1.34251
H         -1.78539       -5.75457        1.15833
H         -0.39930       -4.89164        0.44763
H         -0.39263       -5.31962        2.17029
C         -2.53188       -3.55127        2.78010
H         -2.69446       -4.42101        3.42323
