94
Cat446.ts34.5.log	Energy: -2022301.9494251
C         -1.34050       -0.57100       -3.15414
H         -1.12289       -1.46660       -3.74329
H         -2.40929       -0.37949       -3.01272
C         -0.46682        0.55652       -3.32530
H          0.41422        0.46515       -3.96687
H         -0.92330        1.55389       -3.36468
H         -0.11564        1.04416       -1.83551
Ir        -0.09364       -0.56602       -1.38676
C         -2.72320        1.64848       -0.74870
C         -3.29812       -1.10146        0.05738
C         -1.75742        0.43658        1.72025
C          1.86543       -0.45787        1.63954
C          3.31735       -1.18292       -0.70318
C          2.67936        1.46644       -0.40486
P          1.85180       -0.17085       -0.18199
P         -1.92584        0.12645       -0.08277
C          0.23131       -2.42234       -1.41892
O          0.41161       -3.56590       -1.46590
C         -2.01305        2.86430       -0.63081
O         -0.83661        2.78676        0.01510
C         -0.02321        3.92126        0.12458
H          0.92249        3.57300        0.55189
H          0.18338        4.37036       -0.86067
H         -0.47917        4.68430        0.78046
C         -3.89336        1.65694       -1.53849
O         -4.47180        0.46793       -1.77765
C         -5.69698        0.39229       -2.44852
H         -5.97507       -0.66921       -2.45403
H         -5.61793        0.74978       -3.48995
H         -6.48271        0.96680       -1.92864
C         -4.39754        2.85135       -2.07128
H         -5.31600        2.84983       -2.65655
C         -2.50935        4.05990       -1.16353
H         -1.96566        4.99474       -1.03581
C         -3.70828        4.03991       -1.86674
H         -4.10485        4.96967       -2.28114
C         -4.38216       -0.87225        0.91484
H         -4.42386        0.04633        1.50543
C         -3.25273       -2.28971       -0.67092
H         -2.40160       -2.47391       -1.32920
C         -5.41229       -1.79810        1.02557
H         -6.26434       -1.63401        1.68802
C         -4.27547       -3.23214       -0.56774
H         -4.24961       -4.16832       -1.12847
C         -5.34481       -2.96980        0.27668
F         -6.32916       -3.86298        0.38248
C         -2.12809        1.60348        2.39119
H         -2.52385        2.45466        1.83556
C         -1.29679       -0.65700        2.46710
H         -1.00890       -1.57543        1.94774
C         -2.02070        1.68976        3.77979
H         -2.30476        2.59553        4.31942
C         -1.20987       -0.59405        3.85147
H         -0.84957       -1.43877        4.43924
C         -1.55879        0.59004        4.48960
F         -1.43512        0.67585        5.81651
C          1.77715        0.53128        2.63821
O          1.54387        1.79576        2.24190
C          1.51407        2.81409        3.20489
H          1.35162        3.75262        2.66233
H          0.68689        2.66826        3.91893
H          2.46787        2.88404        3.75512
C          1.90992       -1.80654        2.05905
O          1.81157       -2.71173        1.07644
C          2.01458       -4.07528        1.33046
H          1.89461       -4.58064        0.36527
H          1.26615       -4.47128        2.03763
H          3.02739       -4.26169        1.72600
C          2.04728       -2.15187        3.40739
H          2.12134       -3.19534        3.71064
C          1.92599        0.19302        3.99160
H          1.88380        0.95928        4.76327
C          2.07854       -1.13736        4.35752
H          2.18928       -1.39164        5.41424
C          3.36516       -1.65153       -2.01728
H          2.50183       -1.47475       -2.66561
C          4.41271       -1.41844        0.13651
H          4.39526       -1.07072        1.17223
C          4.47639       -2.34545       -2.49233
H          4.52142       -2.72079       -3.51629
C          5.52601       -2.11633       -0.31972
H          6.38246       -2.31545        0.32729
C          5.54346       -2.57056       -1.63443
F          6.60826       -3.24073       -2.07472
C          3.71714        1.89213        0.43581
H          3.99896        1.29224        1.30333
C          2.37097        2.24193       -1.52247
H          1.57903        1.90977       -2.19480
C          4.39970        3.07724        0.19079
H          5.20331        3.42121        0.84458
C          3.05331        3.42796       -1.79279
H          2.81686        4.03762       -2.66681
C          4.05481        3.83537       -0.92463
F          4.70664        4.97256       -1.16264
