92
Cat478.ts34.5.log	Energy: -1679034.3437394
C         -0.11685       -2.81806       -2.05135
H          0.45081       -3.72361       -1.81879
H         -1.19721       -2.97498       -2.12471
C          0.49736       -1.87649       -2.94409
H          1.51401       -2.05729       -3.30545
H         -0.13831       -1.40032       -3.69958
H          0.31989       -0.44500       -2.25359
Ir         0.53223       -1.19946       -0.76943
O         -1.99850        0.99194       -0.91944
C         -2.92065       -1.56490       -0.91757
C         -2.06503       -0.28996        1.54961
O          2.49008        0.47597        1.44328
C          3.26783        1.04366       -1.11668
C          0.99748        2.21746        0.20749
P          1.80318        0.59515       -0.08546
P         -1.60881       -0.49612       -0.22148
C          1.31187       -2.51150        0.36902
O          1.66945       -3.41997        0.98366
C         -2.85725        1.96588       -0.50256
C         -3.88707        2.36140       -1.36156
H         -3.99928        1.86248       -2.32511
C         -2.68179        2.61694        0.71977
H         -1.84818        2.33878        1.36238
C         -4.75409        3.38365       -0.98320
H         -5.55696        3.68531       -1.66030
C         -3.56062        3.62975        1.09270
H         -3.41522        4.13104        2.05265
C         -4.60342        4.01461        0.25116
H         -5.28852        4.81113        0.54976
C         -3.54395       -1.17030       -2.10667
H         -3.29196       -0.19935       -2.53474
C         -3.17959       -2.84726       -0.38357
C         -2.48472       -3.36206        0.84222
H         -2.85247       -2.87226        1.75734
H         -1.40139       -3.16864        0.79474
H         -2.63848       -4.44436        0.95081
C         -4.46463       -1.99567       -2.74588
H         -4.94634       -1.66434       -3.66886
C         -4.11036       -3.65855       -1.04251
H         -4.32096       -4.65007       -0.63200
C         -4.75920       -3.24334       -2.20301
H         -5.48016       -3.90342       -2.69103
C         -0.97430       -0.24997        2.42754
H          0.02559       -0.38999        2.00987
C         -3.37861       -0.14610        2.05943
C         -4.62899       -0.21933        1.23208
H         -4.89036       -1.26390        1.00062
H         -4.53792        0.30314        0.27313
H         -5.47018        0.22654        1.78041
C         -1.14335       -0.04912        3.79296
H         -0.27550       -0.01812        4.45577
C         -3.52153        0.05344        3.43877
H         -4.52974        0.17385        3.84402
C         -2.42938        0.10747        4.30000
H         -2.58790        0.26835        5.36926
C          3.14352       -0.62657        1.91136
C          2.77908       -1.10185        3.17175
H          1.98153       -0.59350        3.71592
C          4.16484       -1.24787        1.18972
H          4.45082       -0.86209        0.21083
C          3.42374       -2.21422        3.70300
H          3.12782       -2.59061        4.68500
C          4.79804       -2.36449        1.72996
H          5.58740       -2.85856        1.15870
C          4.43045       -2.85467        2.98140
H          4.92650       -3.73569        3.39393
C          3.50075        0.22809       -2.22949
H          2.80997       -0.60058       -2.40155
C          4.15815        2.10408       -0.82515
C          4.01082        3.02197        0.35287
H          3.76677        2.46891        1.26862
H          3.19947        3.74887        0.19253
H          4.94076        3.58379        0.51635
C          4.57965        0.44599       -3.08041
H          4.73839       -0.20371       -3.94403
C          5.24115        2.29888       -1.69167
H          5.94087        3.11067       -1.47488
C          5.45422        1.49326       -2.80746
H          6.31240        1.68175       -3.45734
C          0.87832        2.69374        1.51969
H          1.24732        2.08079        2.34132
C          0.51953        2.99938       -0.86741
C          0.54192        2.53124       -2.29080
H         -0.14543        1.67931       -2.40902
H          1.54135        2.19978       -2.60716
H          0.21635        3.33315       -2.96688
C          0.34000        3.94990        1.78266
H          0.26964        4.30527        2.81331
C         -0.01548        4.25972       -0.57497
H         -0.38429        4.87234       -1.40160
C         -0.09728        4.74364        0.72672
H         -0.52005        5.73335        0.91395
