104
Cat472.ts34.5.log	Energy: -1589242.4437099
C         -0.65708       -2.01208       -3.01808
H          0.08161       -2.46482       -3.68476
H         -1.32561       -2.72795       -2.53170
C         -1.18994       -0.73350       -3.40195
H         -0.78904       -0.22322       -4.28177
H         -2.25778       -0.54459       -3.24791
H         -1.12369        0.18688       -2.05174
Ir         0.33913       -0.58690       -1.74953
O         -1.94650       -0.78040        0.93232
C         -0.66246       -3.14415        0.47336
C          0.53928       -0.64241        1.71158
O          3.67403        0.93132       -0.51587
C          0.10964        2.96445       -0.81875
C         -4.23592       -0.17205        1.08591
P          1.18546        1.48127       -1.06083
P         -0.46211       -1.31260        0.30877
C          2.10508       -1.01987       -2.10430
O          3.28932       -1.05718       -2.15145
C         -3.16704       -0.94734        0.35479
C          2.66488        2.03686       -0.48936
H          3.59736        0.14573       -1.14463
C         -3.42350       -1.69379       -0.70193
H         -3.83477       -2.14519       -2.72433
C         -1.13329        5.50084        0.88361
H         -0.25260        5.70735        0.24532
C         -3.80684       -2.47761       -1.67962
H         -4.10801       -3.51706       -1.49301
C         -2.36391        5.91690        0.12324
H          2.53397        4.88877        1.35229
H         -1.46535       -3.32933       -0.26486
C         -1.15682       -3.66025        1.82252
H         -2.02936       -3.08143        2.16206
H         -0.36674       -3.52046        2.57953
C         -1.49365       -5.14602        1.73011
H         -1.83089       -5.51986        2.71062
H         -2.34413       -5.27951        1.03703
C         -0.30147       -5.95650        1.23216
H         -0.57317       -7.02000        1.13328
H          0.50368       -5.91184        1.98825
C          0.22991       -5.41750       -0.09226
H         -0.53002       -5.57084       -0.87992
H          1.12135       -5.98351       -0.40779
C          0.55861       -3.92989       -0.00762
H          1.39769       -3.78174        0.69329
H          0.89264       -3.54359       -0.98259
H          0.59652        0.42087        1.41200
C          1.97868       -1.15740        1.70826
H          2.38174       -1.15406        0.68417
H          1.99784       -2.20627        2.05284
C          2.83986       -0.30412        2.63368
H          3.87762       -0.67507        2.64050
H          2.87898        0.72332        2.23067
C          2.26983       -0.27231        4.04761
H          2.87758        0.38484        4.69047
H          2.33595       -1.28436        4.48764
C          0.81245        0.17836        4.05349
H          0.75715        1.23327        3.72866
H          0.40429        0.14682        5.07690
C         -0.04862       -0.67234        3.12192
H         -0.07864       -1.70649        3.50107
H         -1.08551       -0.30854        3.10947
C          4.92412        1.04380        0.09668
C          5.78282       -0.04363       -0.01005
H          5.48535       -0.93043       -0.57442
C          5.24737        2.19389        0.79889
H          4.52209        3.00643        0.84035
C          7.02309        0.03252        0.61955
H          7.71200       -0.81171        0.54600
C          6.49338        2.24544        1.42147
H          6.76993        3.14194        1.98089
C          7.38095        1.17325        1.33729
H          8.35351        1.22627        1.83076
H          0.81736        3.80926       -0.86089
C         -0.55760        2.90484        0.55512
H          0.21093        2.92840        1.34463
H         -1.07724        1.93527        0.64414
C         -1.56333        4.02211        0.77407
H         -2.20927        3.77133        1.62818
H         -0.93308        5.98807        1.85233
C         -2.43462        4.50597       -0.41253
H          2.57399        4.26459        0.90798
H         -3.44822        4.08583       -0.53309
C         -1.70066        4.42544       -1.77114
H         -0.99116        5.26223       -1.88605
H         -2.43877        4.54895       -2.57678
C         -0.93322        3.11875       -1.92234
H         -1.63037        2.26275       -1.88444
H         -0.44995        3.08577       -2.91207
H         -4.19842       -0.52985        2.13398
C         -5.64319       -0.41651        0.54893
H         -5.87776       -1.49191        0.58373
H         -5.67062       -0.13024       -0.51724
C         -6.68464        0.38829        1.31819
H         -7.68495        0.21060        0.89190
H         -6.72526        0.02928        2.36268
C         -6.35870        1.87751        1.31280
H         -7.10557        2.43912        1.89661
H         -6.42233        2.25901        0.27749
C         -4.95721        2.13238        1.85397
H         -4.92548        1.85857        2.92419
H         -4.71251        3.20610        1.80249
C         -3.90762        1.32420        1.10167
H         -3.83969        1.67725        0.05680
H         -2.91460        1.47153        1.54772
