104
Cat530.ts34.5.log	Energy: -1714015.5761313
C          1.27812       -1.60206       -2.97502
H          1.17708       -1.10570       -3.94412
H          2.29131       -1.96595       -2.77615
C          0.17251       -2.41962       -2.54271
H         -0.74296       -2.43850       -3.14084
H          0.39554       -3.39690       -2.09705
H         -0.05314       -2.04747       -1.04920
Ir         0.27912       -0.44129       -1.44730
O          2.30309       -1.93317        0.93802
C          3.73241       -0.58314       -0.77364
C          2.13747        0.76103        1.40356
O         -1.48528        0.95392        1.18703
C         -2.84689        1.13921       -1.17244
C         -2.48135       -1.38320        0.47124
P         -1.61640        0.08290       -0.26458
P          2.07152       -0.50172        0.04187
C          0.17100        1.12444       -2.48964
O          0.09679        2.10918       -3.09751
C          1.27969       -2.67461        1.42565
C          1.02859       -3.92947        0.86294
H          1.64488       -4.25639        0.02334
C          0.50308       -2.23760        2.50415
H          0.67840       -1.25170        2.93480
C          0.02164       -4.74519        1.37185
H         -0.19040       -5.72609        0.94254
C         -0.49287       -3.05552        3.03013
H         -1.09930       -2.73157        3.87745
C         -0.72381       -4.29816        2.45533
F         -1.70480       -5.06793        2.93624
H          3.63559       -1.56601       -1.27391
C          4.96284       -0.67194        0.12800
H          4.80723       -1.42729        0.91239
H          5.11972        0.29624        0.63303
C          6.20441       -0.99887       -0.69838
H          7.09130       -1.04136       -0.04524
H          6.09147       -2.00813       -1.13437
C          6.41448        0.01469       -1.81799
H          7.29133       -0.25978       -2.42669
H          6.64282        1.00041       -1.37288
C          5.17393        0.14132       -2.69614
H          5.01131       -0.80863       -3.23737
H          5.32463        0.91428       -3.46698
C          3.92953        0.46112       -1.87365
H          4.04052        1.46110       -1.42229
H          3.03599        0.50593       -2.51347
H          1.07502        0.82381        1.70508
C          2.53791        2.14312        0.88130
H          1.94456        2.40518       -0.00866
H          3.59424        2.11692        0.56275
C          2.37507        3.20067        1.96889
H          2.68754        4.18537        1.58552
H          1.30661        3.29153        2.22121
C          3.15260        2.84158        3.22883
H          2.98004        3.59790        4.01152
H          4.23653        2.85902        3.01237
C          2.76910        1.45445        3.73136
H          1.71031        1.46294        4.04936
H          3.36109        1.18682        4.62178
C          2.96023        0.40170        2.64371
H          4.02764        0.35140        2.38178
H          2.69669       -0.59827        3.01580
C         -1.25995        2.28092        1.34174
C         -1.58004        2.82272        2.59319
H         -1.98023        2.15831        3.36114
C         -0.73423        3.11645        0.34999
H         -0.42973        2.70979       -0.61267
C         -1.40245        4.17886        2.84524
H         -1.65225        4.61297        3.81503
C         -0.56823        4.47835        0.59617
H         -0.16117        5.13861       -0.17157
C         -0.90655        4.99801        1.83703
F         -0.74511        6.30140        2.07219
H         -2.24830        2.05180       -1.34411
C         -4.09762        1.57581       -0.41059
H         -3.84273        1.92771        0.60047
H         -4.77427        0.71289       -0.28906
C         -4.82277        2.67251       -1.18711
H         -5.73522        2.97604       -0.64855
H         -4.17422        3.56606       -1.22835
C         -5.16513        2.22517       -2.60443
H         -5.64158        3.04814       -3.16147
H         -5.91292        1.41256       -2.55342
C         -3.93396        1.71951       -3.35017
H         -3.23231        2.55578       -3.51998
H         -4.21670        1.34481       -4.34726
C         -3.21313        0.62608       -2.56793
H         -3.87135       -0.25406       -2.48450
H         -2.30728        0.29374       -3.09735
H         -1.63196       -1.97467        0.85416
C         -3.17048       -2.22032       -0.60950
H         -2.48030       -2.41465       -1.44460
H         -4.01975       -1.65259       -1.02552
C         -3.70167       -3.52668       -0.02982
H         -4.19308       -4.11535       -0.82135
H         -2.85602       -4.13467        0.33728
C         -4.66727       -3.25951        1.11834
H         -5.02970       -4.20771        1.54670
H         -5.55676       -2.73215        0.72716
C         -4.00644       -2.41229        2.19902
H         -3.20438       -3.00713        2.66365
H         -4.72584       -2.18120        3.00152
C         -3.42620       -1.11244        1.64449
H         -4.25276       -0.46245        1.31827
H         -2.89098       -0.56312        2.43163
