98
Cat515.ts34.5.log	Energy: -1728340.5536988
C         -0.89392        0.58572        4.08829
H         -0.49765        1.42123        4.67174
H         -1.98176        0.61314        3.97476
C         -0.26256       -0.69553        4.26491
H          0.63516       -0.77470        4.88345
H         -0.90046       -1.58360        4.33342
H         -0.07389       -1.28332        2.75464
Ir         0.29799        0.28534        2.30771
O         -1.78299       -1.43893        0.41204
C         -3.13286        0.79668        1.42157
C         -1.30650        0.90454       -0.84479
O          1.88250       -0.24563       -0.70020
C          3.64479       -0.24300        1.39798
C          1.82786       -2.45605        0.70961
P          1.88777       -0.60662        0.92814
P         -1.48345        0.16794        0.83012
C          1.27127        1.88481        2.58673
O          1.86578        2.86651        2.74475
C         -2.87259       -2.00173       -0.18922
C         -3.67813       -2.84648        0.57430
H         -3.42753       -2.99714        1.62637
C         -3.14268       -1.84107       -1.55025
H         -2.47941       -1.23738       -2.16948
C         -4.77893       -3.47178       -0.00350
H         -5.40551       -4.12543        0.60983
C         -4.25457       -2.46109       -2.11048
H         -4.46553       -2.31033       -3.17277
C         -5.10282       -3.27460       -1.35001
C         -6.32437       -3.89665       -1.96068
H         -7.13532       -3.15526       -2.05852
H         -6.70623       -4.72518       -1.34743
H         -6.11942       -4.28554       -2.96944
H         -2.88470        1.78659        1.83823
H         -3.38931        0.15711        2.28046
C         -4.28395        0.89002        0.46215
C         -5.34077       -0.02615        0.52087
H         -5.33254       -0.80531        1.28496
C         -4.33757        1.90078       -0.50785
H         -3.54811        2.65475       -0.54902
C         -6.39197        0.02960       -0.38948
H         -7.19802       -0.70558       -0.32758
C         -5.38847        1.95863       -1.42063
H         -5.40458        2.75228       -2.17167
C         -6.41497        1.01679       -1.37337
H         -7.23665        1.06032       -2.09223
H         -2.22150        0.66628       -1.40929
H         -0.48445        0.33060       -1.30436
C         -1.03849        2.38246       -0.97267
C         -0.99232        2.92623       -2.26334
H         -1.12156        2.26604       -3.12497
C         -0.86172        3.24446        0.11428
H         -0.86102        2.84419        1.12987
C         -0.77778        4.28570       -2.46242
H         -0.74479        4.68462       -3.47925
C         -0.63992        4.60720       -0.08233
H         -0.49486        5.25667        0.78422
C         -0.59891        5.13480       -1.37005
H         -0.42856        6.20314       -1.52395
C          2.07470        0.91880       -1.36937
C          2.07958        0.81943       -2.76288
H          1.93446       -0.16564       -3.21185
C          2.26689        2.16105       -0.76306
H          2.23361        2.26716        0.31937
C          2.27931        1.95795       -3.53678
H          2.27973        1.86683       -4.62674
C          2.46992        3.28686       -1.55631
H          2.60407        4.25374       -1.06469
C          2.48113        3.21357       -2.95221
C          2.69001        4.44563       -3.78296
H          1.95386        5.22401       -3.52581
H          2.59286        4.22956       -4.85644
H          3.68959        4.87932       -3.61820
H          3.69518       -0.51561        2.46328
H          3.74169        0.85316        1.35633
C          4.70746       -0.92788        0.59824
C          5.06212       -0.47052       -0.67784
H          4.58386        0.42258       -1.08537
C          5.34945       -2.06730        1.10090
H          5.09914       -2.42607        2.10355
C          6.01422       -1.14719       -1.43492
H          6.27060       -0.77827       -2.43082
C          6.30580       -2.74402        0.34546
H          6.79463       -3.63049        0.75657
C          6.63671       -2.28897       -0.92988
H          7.38313       -2.81884       -1.52624
H          0.92541       -2.77317        1.24755
H          2.70244       -2.86467        1.23841
C          1.78661       -2.92795       -0.71518
C          2.95341       -3.24254       -1.41762
H          3.92159       -3.18166       -0.91732
C          0.55692       -3.01252       -1.37877
H         -0.35528       -2.76031       -0.83574
C          2.89274       -3.61902       -2.75797
H          3.81641       -3.85714       -3.29132
C          0.49494       -3.39000       -2.71737
H         -0.47642       -3.45199       -3.21503
C          1.66521       -3.68997       -3.41533
H          1.61985       -3.98583       -4.46641
