96
Cat670.ts34.5.log	Energy: -1257704.7478232
C          0.95791       -3.10094        0.70262
H          1.22873       -3.82990       -0.06680
H          1.72865       -2.98108        1.47215
C         -0.42315       -3.09092        1.13095
H         -1.14550       -3.72697        0.61061
H         -0.62381       -3.04364        2.20868
H         -0.81223       -1.58014        1.20773
Ir         0.12083       -1.32982       -0.18263
C          1.02878        1.13589        2.39160
C          3.15759       -0.51090        1.44767
C          2.08325        1.57377       -0.23450
C         -1.07780        1.00605       -2.50056
C         -3.13588       -0.66382       -1.38028
C         -1.98424        1.44403        0.26326
P         -1.52297        0.11774       -0.94585
P          1.54754        0.19558        0.87893
C          0.64706       -1.75521       -1.94077
O          0.98085       -1.98321       -3.02826
H          1.89291        1.68924        2.79852
H          0.29928        1.89154        2.05373
C          0.40063        0.26214        3.46733
H          1.14309       -0.46858        3.83251
H         -0.40207       -0.33740        3.00487
C         -0.15085        1.06178        4.63730
H          0.63709        1.65392        5.12986
H         -0.92949        1.76668        4.30212
H         -0.60050        0.40653        5.39903
H          3.74169        0.26882        1.96634
H          2.90669       -1.26944        2.20837
C          3.96371       -1.14896        0.32668
H          3.30109       -1.81423       -0.25245
H          4.29808       -0.36931       -0.38098
C          5.17402       -1.92836        0.82046
H          4.83621       -2.71590        1.51901
H          5.82911       -1.26375        1.41370
C          5.98214       -2.56485       -0.30166
H          5.31959       -3.22076       -0.89323
H          6.31653       -1.77564       -0.99838
C          7.18310       -3.35621        0.19019
H          7.74581       -3.80297       -0.64356
H          6.87418       -4.17567        0.85918
H          7.87943       -2.71643        0.75638
H          2.38963        1.08567       -1.17453
H          1.15868        2.12489       -0.47954
C          3.15664        2.53640        0.25097
H          2.84640        3.00642        1.20010
H          4.08313        1.98090        0.47691
C          3.47019        3.62777       -0.76450
H          2.54615        4.19059       -0.99224
H          3.77529        3.15988       -1.71824
C          4.55180        4.59683       -0.30788
H          4.24440        5.05738        0.64794
H          5.47213        4.02952       -0.08186
C          4.85787        5.68419       -1.32507
H          5.64292        6.36747       -0.96727
H          3.96369        6.29024       -1.54324
H          5.20174        5.25296       -2.27902
H         -0.07138        1.41864       -2.32117
H         -0.92694        0.20180       -3.24150
C         -2.00058        2.08037       -3.05927
H         -2.07507        2.91450       -2.34210
H         -3.02317        1.68291       -3.17278
C         -1.51338        2.61388       -4.39881
H         -0.50296        3.04422       -4.31104
H         -1.46301        1.81138       -5.15164
H         -2.17923        3.39882       -4.78871
H         -3.85674        0.10924       -1.69601
H         -2.92441       -1.29109       -2.26266
C         -3.71233       -1.51925       -0.26299
H         -2.96292       -2.27787        0.01512
H         -3.86535       -0.90566        0.64345
C         -5.02297       -2.19652       -0.63596
H         -4.87036       -2.80584       -1.54538
H         -5.77142       -1.43087       -0.91198
C         -5.58533       -3.07578        0.47230
H         -4.83222       -3.83637        0.74434
H         -5.73028       -2.46373        1.38045
C         -6.89202       -3.75758        0.10055
H         -7.27210       -4.38510        0.92094
H         -6.76721       -4.40475       -0.78254
H         -7.67314       -3.01914       -0.14264
H         -1.84822        0.98080        1.25344
H         -1.18693        2.20402        0.18257
C         -3.35592        2.10072        0.18741
H         -3.53033        2.53184       -0.81110
H         -4.13975        1.33711        0.32550
C         -3.53370        3.18654        1.24091
H         -2.76004        3.96352        1.09899
H         -3.34233        2.75699        2.24164
C         -4.91046        3.83563        1.22388
H         -5.09767        4.25907        0.22107
H         -5.67894        3.05499        1.36501
C         -5.08083        4.91829        2.27717
H         -6.08473        5.36759        2.24051
H         -4.34815        5.72961        2.13836
H         -4.93406        4.51456        3.29194
