74
Cat785.ts34.5.log	Energy: -1202369.6306379
C         -3.44382       -0.59326       -1.77833
H         -4.02473       -1.51963       -1.75421
H         -4.06775        0.30639       -1.72731
C         -2.30167       -0.56472       -2.66635
H         -2.01164       -1.47970       -3.19159
H         -2.16995        0.32481       -3.29709
H         -1.18235        0.09285       -1.83990
Ir        -1.73420       -0.75930       -0.48572
C         -1.66582        2.88469       -0.03817
C         -3.93527        1.48859        1.00344
C         -1.41284        1.38316        2.38658
C          1.41331       -0.38230        1.12540
C          0.81174       -3.10170        0.33282
C          1.49378       -1.12929       -1.70395
P          0.48632       -1.35678       -0.16617
P         -2.12645        1.22578        0.68787
C         -2.36899       -2.21469        0.52090
O         -2.73155       -3.09388        1.18488
H         -2.22639        2.94787       -0.98421
H         -2.03390        3.68483        0.62333
C         -0.19854        3.05341       -0.28281
C          0.62667        3.63599        0.68626
H          0.19194        3.98319        1.62714
C          0.38621        2.62230       -1.48133
H         -0.25066        2.16574       -2.24324
C          1.99115        3.79388        0.45148
H          2.62375        4.25510        1.21368
C          1.75152        2.77710       -1.73722
C          2.35474        2.33264       -3.03897
H          1.63010        1.77995       -3.65287
H          2.70644        3.19493       -3.62817
H          3.22622        1.67899       -2.87335
C          2.54954        3.37399       -0.75224
H          3.61919        3.51225       -0.93419
H         -4.29881        0.51485        1.36959
C         -4.36427        2.61704        1.92664
H         -4.00980        3.60021        1.58051
H         -3.99549        2.47209        2.95333
H         -4.38739        1.60473        0.00517
H         -5.46270        2.67320        1.98324
H         -1.74685        2.33674        2.82954
C         -1.75850        0.20868        3.28612
H         -1.46525       -0.74299        2.81730
H         -2.84047        0.14823        3.48225
H         -0.32362        1.46517        2.25807
H         -1.24915        0.29014        4.25861
H          1.19411        0.66607        0.87040
H          0.88768       -0.60478        2.06738
C          2.88862       -0.59174        1.25666
C          3.42040       -1.65027        2.00580
H          2.75045       -2.31697        2.55459
C          3.77310        0.26553        0.59576
H          3.36071        1.10546        0.03088
C          4.79631       -1.85341        2.05378
H          5.20256       -2.68388        2.63655
C          5.15829        0.07733        0.63331
C          6.06731        1.02493       -0.09545
H          5.78158        1.11629       -1.15535
H          6.01702        2.03607        0.34017
H          7.11470        0.69469       -0.05499
C          5.66111       -1.00216        1.36608
H          6.74042       -1.17191        1.40746
H          0.35925       -3.21582        1.33238
C          0.23513       -4.13256       -0.62511
H          0.67692       -4.04778       -1.62982
H         -0.85146       -4.00887       -0.73272
H          1.89842       -3.23668        0.45329
H          0.43178       -5.15252       -0.26064
H          1.67192       -0.04321       -1.75683
C          2.78894       -1.91243       -1.86321
H          2.60531       -2.99562       -1.91274
H          3.49682       -1.72907       -1.04450
H          0.80203       -1.35772       -2.52958
H          3.28802       -1.62627       -2.80291
