92
Cat717.ts34.5.log	Energy: -2784853.3818989
C          1.75829       -0.21804       -3.73613
H          1.24897        0.06044       -4.66266
H          2.71970        0.28804       -3.60080
C          1.65405       -1.59144       -3.31073
H          0.99243       -2.27451       -3.85003
H          2.55527       -2.08876       -2.93261
H          1.39972       -1.47618       -1.72472
Ir         0.37706       -0.20253       -2.07189
C          3.41234        1.13900       -0.68809
O          1.48499        2.85442       -1.03052
O          1.11949        1.07693        0.82835
C         -2.05270        0.28150        0.45142
O         -2.13614       -2.04110       -1.04751
O         -0.38822       -1.72758        0.83699
P         -1.04348       -0.92335       -0.46593
P          1.59167        1.19922       -0.77375
C         -1.07841        0.46651       -3.11587
O         -1.96965        0.86523       -3.72884
H          3.80450        2.02314       -0.16388
H          3.72514        1.23308       -1.74119
C          3.92026       -0.15573       -0.06758
H          3.74294       -0.11954        1.01999
H          3.32369       -1.00935       -0.43633
C          5.40263       -0.43454       -0.33128
H          5.96639        0.48025       -0.06773
C          5.90391       -1.56693        0.55732
H          5.73591       -1.34637        1.62318
H          6.98241       -1.73653        0.41568
H          5.38863       -2.51254        0.32430
C          5.66859       -0.74907       -1.79963
H          6.74024       -0.92214       -1.98131
H          5.35208        0.06440       -2.47023
H          5.12910       -1.66251       -2.10223
C          0.26740        3.41956       -1.30424
C         -0.54861        3.85027       -0.25836
H         -0.20508        3.74154        0.77236
C         -0.14960        3.55981       -2.62652
H          0.50060        3.20440       -3.42695
C         -1.78839        4.42016       -0.53526
H         -2.43698        4.76246        0.27269
C         -1.38873        4.12526       -2.90837
H         -1.73407        4.22435       -3.93813
C         -2.20474        4.54784       -1.85966
Cl        -3.75538        5.24019       -2.20460
C          1.54675        1.71527        1.95021
C          2.25698        2.91963        1.95357
H          2.49855        3.41640        1.01441
C          1.18846        1.11890        3.16411
H          0.60329        0.19829        3.13602
C          2.62751        3.50029        3.16544
H          3.18235        4.43984        3.17585
C          1.55339        1.70062        4.37143
H          1.27441        1.23740        5.31920
C          2.28089        2.89142        4.36865
Cl         2.74361        3.62023        5.87036
H         -2.85404        0.57349       -0.25007
H         -1.38459        1.15290        0.52069
C         -2.60823       -0.09508        1.81910
H         -3.22844       -0.99852        1.74294
H         -1.77249       -0.35839        2.48790
C         -3.44704        1.01026        2.46529
H         -4.23822        1.28987        1.74390
C         -4.12968        0.47395        3.71843
H         -4.75819       -0.40113        3.48968
H         -4.76944        1.23814        4.18602
H         -3.38268        0.16202        4.46751
C         -2.62829        2.25845        2.77461
H         -3.25061        3.03426        3.24657
H         -2.18824        2.69680        1.86727
H         -1.80111        2.02597        3.46608
C         -3.21926       -2.47003       -0.32692
C         -4.46927       -1.91073       -0.59110
H         -4.56036       -1.16690       -1.38504
C         -3.07607       -3.44737        0.65852
H         -2.09476       -3.88567        0.84545
C         -5.57304       -2.28863        0.16674
H         -6.55400       -1.84807       -0.01766
C         -4.17828       -3.82896        1.41711
H         -4.07978       -4.57951        2.20280
C         -5.41790       -3.23519        1.17950
Cl        -6.78070       -3.67895        2.15222
C          0.67214       -2.57718        0.73750
C          0.75499       -3.54116       -0.27132
H         -0.04589       -3.62500       -1.00823
C          1.68683       -2.46974        1.68811
H          1.61043       -1.70699        2.46307
C          1.86729       -4.37629       -0.34170
H          1.94875       -5.12395       -1.13217
C          2.79075       -3.31239        1.62895
H          3.59227       -3.22967        2.36415
C          2.88321       -4.25305        0.60388
Cl         4.28369       -5.26998        0.49877
