98
Cat739.ts34.5.log	Energy: -1728289.0645012
C          1.25117       -3.05388       -0.85954
H          0.99096       -3.60274       -1.76904
H          2.32343       -2.88604       -0.72104
C          0.45050       -3.28191        0.30406
H         -0.42363       -3.93744        0.25447
H          0.95880       -3.32497        1.27591
H          0.10859       -1.78609        0.87293
Ir        -0.03421       -1.30953       -0.70401
C          2.17033       -0.40012        1.68604
C          3.34921       -0.09578       -1.05119
C          1.74248        1.94291        0.00126
C         -1.80238        1.64335       -0.50854
C         -3.50398       -0.65485       -1.10528
C         -2.64863       -0.27626        1.57997
P         -1.98748       -0.15211       -0.15156
P          1.79856        0.09067       -0.05063
C         -0.51924       -1.26397       -2.53153
O         -0.83105       -1.21561       -3.64543
C          1.26861        0.01130        2.67766
H          0.44294        0.67089        2.39801
C          3.14654       -1.35596        2.03868
O          3.93558       -1.81156        1.04780
C          4.97571       -2.70346        1.32491
H          5.69048       -2.28390        2.05432
H          5.49529       -2.87248        0.37324
H          4.59856       -3.66862        1.70652
C          1.36701       -0.43509        3.99263
H          0.64614       -0.09123        4.73726
C          3.24944       -1.80566        3.36158
H          4.01381       -2.53434        3.63229
C          2.36969       -1.33834        4.33507
H          2.46201       -1.70248        5.36100
C          3.22708       -0.81498       -2.24393
H          2.25341       -1.24503       -2.48800
C          4.59160        0.49158       -0.72160
C          4.82542        1.31174        0.51178
H          4.28855        0.91965        1.38495
H          4.47941        2.34709        0.36561
H          5.89757        1.34718        0.75226
C          4.30259       -0.97990       -3.11267
H          4.17378       -1.54550       -4.03835
C          5.66282        0.30551       -1.60358
H          6.63007        0.74811       -1.34859
C          5.53220       -0.41812       -2.78648
H          6.39199       -0.53808       -3.45051
C          1.91939        2.67086        1.18616
H          2.06059        2.14363        2.12933
C          1.60374        2.64849       -1.21771
C          1.43476        1.96812       -2.54106
H          0.81396        1.06486       -2.45269
H          2.40718        1.65175       -2.94987
H          0.96470        2.64704       -3.26513
C          1.97369        4.06104        1.18879
H          2.13260        4.59473        2.12948
C          1.66907        4.04729       -1.19029
H          1.56368        4.58695       -2.13515
C          1.85573        4.75749       -0.01087
H          1.90555        5.84895       -0.02872
C         -1.80800        2.06685       -1.84203
H         -1.89844        1.32260       -2.63626
C         -1.55285        2.60808        0.49011
O         -1.38904        2.15302        1.74692
C         -1.37403        3.04982        2.82186
H         -0.48609        3.70375        2.79327
H         -1.34483        2.43692        3.73211
H         -2.28532        3.67210        2.83972
C         -1.71342        3.41452       -2.18084
H         -1.74223        3.71553       -3.22995
C         -1.48084        3.96347        0.15713
H         -1.30992        4.70892        0.93297
C         -1.57943        4.36298       -1.17253
H         -1.51233        5.42529       -1.41812
C         -4.25132        0.25356       -1.86684
H         -3.96869        1.30503       -1.88822
C         -3.93516       -2.00343       -1.04621
C         -3.23360       -3.05009       -0.23991
H         -3.26566       -2.82369        0.83710
H         -2.16838       -3.08125       -0.52103
H         -3.68952       -4.03655       -0.39893
C         -5.37657       -0.13782       -2.58537
H         -5.92999        0.60202       -3.16839
C         -5.07167       -2.37403       -1.77582
H         -5.39601       -3.41717       -1.73113
C         -5.78871       -1.46522       -2.54578
H         -6.66771       -1.79330       -3.10575
C         -1.94563       -1.07940        2.48053
H         -1.04153       -1.58024        2.13447
C         -3.82345        0.37883        2.02215
C         -4.67668        1.26138        1.16004
H         -5.32395        0.66329        0.50063
H         -4.08327        1.91792        0.51092
H         -5.32435        1.89224        1.78489
C         -2.35559       -1.24923        3.80005
H         -1.77181       -1.88286        4.47168
C         -4.21813        0.19719        3.35353
H         -5.12031        0.70908        3.70001
C         -3.50408       -0.60302        4.24142
H         -3.84828       -0.71781        5.27229
