62
Cat784.ts34.5.log	Energy: -1103771.9144895
C         -1.45496       -3.30986       -0.47158
H         -1.18840       -4.21070        0.08816
H         -2.51582       -3.04531       -0.37815
C         -0.83023       -3.13037       -1.76229
H         -0.05174       -3.82974       -2.07990
H         -1.46257       -2.80994       -2.59923
H         -0.38944       -1.61654       -1.79461
Ir         0.01772       -1.77243       -0.15944
C         -2.94579        0.08981       -0.84460
C         -2.56974       -0.70894        1.91297
C         -1.14594        1.50424        0.90222
C          2.57670        0.39713        0.90350
C          3.35339       -1.42729       -1.19423
C          1.73143        0.80699       -1.84451
P          1.89812       -0.50294       -0.57615
P         -1.61185       -0.21047        0.43040
C          0.88959       -2.61622        1.28452
O          1.45243       -3.08410        2.18435
H         -2.41497        0.52275       -1.70712
H         -3.27756       -0.91506       -1.15149
C         -4.10345        0.93825       -0.42700
C         -5.22890        0.37129        0.18418
H         -5.28196       -0.71262        0.31639
C         -4.07024        2.32880       -0.59505
H         -3.20265        2.78178       -1.08510
C         -6.27605        1.17841        0.62101
H         -7.14848        0.72453        1.09772
C         -5.11296        3.15483       -0.16519
C         -5.06318        4.63855       -0.39113
H         -4.02984        4.99572       -0.50735
H         -5.61216        4.91622       -1.30647
H         -5.52413        5.18849        0.44260
C         -6.21863        2.55974        0.45371
H         -7.04432        3.18609        0.80245
H         -1.86005       -0.80546        2.74730
H         -3.36083        0.01049        2.17391
H         -3.01255       -1.69983        1.73801
H         -2.02172        2.10844        1.18530
H         -0.45744        1.44782        1.75797
H         -0.62272        1.99642        0.06929
H          1.73932        1.00383        1.27820
H          2.75483       -0.39007        1.65288
C          3.79780        1.23016        0.67424
C          5.07998        0.68451        0.80953
H          5.19324       -0.35485        1.12846
C          3.68291        2.56980        0.28177
H          2.68501        3.00950        0.18679
C          6.20625        1.45994        0.54498
H          7.20255        1.02405        0.65295
C          4.80171        3.36432        0.01540
C          4.64764        4.80783       -0.36825
H          5.41580        5.11646       -1.09252
H          3.66056        5.00602       -0.81012
H          4.75055        5.46230        0.51345
C          6.07047        2.78711        0.14621
H          6.96048        3.38769       -0.06094
H          3.62443       -2.19195       -0.45211
H          3.05549       -1.94633       -2.11651
H          4.21705       -0.77450       -1.39350
H          0.93226        1.50231       -1.55237
H          2.66924        1.36316       -1.99113
H          1.43338        0.32599       -2.78719
