108
Cat840.ts34.5.log	Energy: -1857066.8308466
C          0.55865       -2.27302       -2.92304
H          0.36283       -2.13701       -3.99020
H          1.61001       -2.49971       -2.70475
C         -0.45128       -2.95562       -2.14850
H         -1.39991       -3.22492       -2.62178
H         -0.12717       -3.71512       -1.42552
H         -0.58485       -2.09670       -0.82312
Ir        -0.41742       -0.72965       -1.79008
C          2.47637       -1.62484        0.04732
C          2.71166        0.71029       -1.80572
C          1.34255        1.01596        0.82997
C         -2.18264        2.06560       -0.64278
C         -3.85659       -0.19773       -1.48108
C         -2.44161       -0.15575        1.15202
P         -2.21164        0.19411       -0.66164
P          1.53192       -0.15037       -0.62902
C         -0.72632        0.43377       -3.24259
O         -0.90342        1.19887       -4.09652
H          2.10811       -1.75676        1.07478
H          2.08278       -2.46985       -0.53704
C          3.97265       -1.64934        0.02146
C          4.65464       -2.06629       -1.13015
H          4.08564       -2.39549       -2.00439
C          4.73136       -1.27931        1.13942
H          4.22770       -0.98340        2.05987
C          6.04716       -2.07263       -1.18914
H          6.58250       -2.38611       -2.08699
C          6.12174       -1.28041        1.09922
H          6.71506       -0.98511        1.96658
C          6.76316       -1.66398       -0.07163
F          8.09713       -1.62976       -0.12483
H          3.26047       -0.10115       -2.30618
H          2.03345        1.13511       -2.55832
C          3.64576        1.77129       -1.31009
C          3.19533        3.09258       -1.19008
H          2.16915        3.34176       -1.47512
C          4.97905        1.49149       -0.98713
H          5.34773        0.47088       -1.09466
C          4.04980        4.09155       -0.72684
H          3.68519        5.11724       -0.63110
C          5.85542        2.48303       -0.53874
C          7.29289        2.16523       -0.24347
H          7.47173        1.08230       -0.21188
H          7.95394        2.58891       -1.01720
H          7.60965        2.59484        0.71912
C          5.36855        3.78957       -0.39742
H          6.03585        4.57967       -0.04144
H          1.38118        2.02633        0.39565
H          0.30609        0.84960        1.15347
C          2.25725        0.90125        2.01116
C          1.93988        0.02608        3.05969
H          1.00932       -0.54753        3.02839
C          3.43086        1.65675        2.10576
H          3.68036        2.35692        1.30749
C          2.79285       -0.10431        4.15359
H          2.53231       -0.78676        4.96635
C          4.30045        1.53363        3.19354
C          5.58097        2.31458        3.23373
H          5.49819        3.24854        2.66032
H          5.87738        2.55804        4.26440
H          6.40131        1.73142        2.78255
C          3.96971        0.63869        4.21849
H          4.63545        0.53138        5.07930
H         -1.27860        2.32316       -0.06941
H         -1.98185        2.34904       -1.68677
C         -3.39422        2.76437       -0.11480
C         -4.40211        3.20456       -0.98434
H         -4.26227        3.10362       -2.06385
C         -3.58573        2.95459        1.26149
H         -2.80216        2.65655        1.96161
C         -5.58420        3.76355       -0.50432
H         -6.37715        4.09316       -1.17768
C         -4.76074        3.50852        1.76027
H         -4.91988        3.64587        2.83123
C         -5.75508        3.89017        0.86765
F         -6.89889        4.38461        1.34191
H         -4.15848        0.73247       -1.98760
H         -3.58894       -0.91291       -2.26855
C         -4.98648       -0.73669       -0.65747
C         -5.34457       -2.08467       -0.76159
H         -4.79065       -2.73757       -1.44064
C         -5.71151        0.07988        0.22033
H         -5.45836        1.13830        0.29738
C         -6.39478       -2.59581       -0.00216
H         -6.66668       -3.65021       -0.09391
C         -6.76126       -0.41688        0.99746
C         -7.50160        0.48085        1.94715
H         -7.33851        1.54182        1.71168
H         -8.58423        0.28612        1.92348
H         -7.16649        0.31810        2.98511
C         -7.09504       -1.77260        0.87557
H         -7.91768       -2.18183        1.46863
H         -1.66601        0.45534        1.64178
H         -3.41660        0.25294        1.45324
C         -2.31729       -1.58412        1.58923
C         -3.44880       -2.33626        1.92343
H         -4.43912       -1.88082        1.86866
C         -1.05959       -2.18579        1.69664
H         -0.17515       -1.59831        1.44643
C         -3.31240       -3.66059        2.32838
H         -4.20299       -4.23969        2.58442
C         -0.90282       -3.51491        2.10379
C          0.46735       -4.12386        2.19213
H          1.14980       -3.49732        2.78793
H          0.43727       -5.12152        2.65176
H          0.92189       -4.22963        1.19361
C         -2.05159       -4.24930        2.41300
H         -1.95529       -5.29000        2.73459
