84
Cat821.ts34.5.log	Energy: -1659853.2774756
C          0.96960       -3.64967        0.56322
H          0.78211       -4.42044       -0.18891
H          2.02916       -3.53515        0.81680
C         -0.00429       -3.50367        1.61678
H         -0.93617       -4.07409        1.56910
H          0.36239       -3.39192        2.64477
H         -0.22941       -1.96002        1.75456
Ir        -0.11270       -1.85312        0.07082
C          1.49825        1.13901       -0.80370
C          2.81816       -0.14332        1.48204
C          3.04809       -1.26699       -1.15271
C         -2.25373        0.35615       -1.55383
C         -3.49005       -1.16504        0.57090
C         -1.80871        1.08477        1.24790
P         -1.89147       -0.37239        0.12976
P          1.80934       -0.53230       -0.01284
C         -0.55646       -2.41385       -1.67294
O         -0.81997       -2.72245       -2.75923
H          1.14460        0.88324       -1.81436
H          0.63690        1.55157       -0.25931
C          2.61865        2.12488       -0.84291
C          2.70177        3.13146        0.12755
H          1.91535        3.21098        0.88287
C          3.63784        2.03779       -1.80133
H          3.59512        1.25871       -2.56572
C          3.77358        4.01906        0.15863
H          3.84692        4.80381        0.91360
C          4.71954        2.91385       -1.78040
H          5.52028        2.85132       -2.51951
C          4.77567        3.89300       -0.79500
F          5.81029        4.73362       -0.76975
C          2.33778       -0.56466        2.72676
C          4.03706        0.55321        1.43478
C          4.23168        0.42918        3.84214
C          4.73319        0.83899        2.60644
C          3.03401       -0.27980        3.90070
H          1.39877       -1.12396        2.76077
H          2.63948       -0.61729        4.86209
H          4.78104        0.65647        4.75911
H          5.67652        1.38758        2.55121
H          4.45446        0.86812        0.47755
C          4.26666       -1.79923       -0.71827
C          2.70308       -1.39816       -2.50693
C          4.79456       -2.51492       -2.96782
C          3.57210       -2.00319       -3.40788
C          5.13157       -2.42004       -1.62088
H          4.54830       -1.73237        0.33411
H          6.07852       -2.83101       -1.26227
H          5.47496       -2.99701       -3.67365
H          3.28640       -2.09020       -4.45892
H          1.73003       -1.04498       -2.85844
H         -1.28096        0.73717       -1.89593
H         -2.47994       -0.51836       -2.18284
C         -3.31070        1.40558       -1.66275
C         -4.67301        1.07527       -1.64345
H         -4.97449        0.02701       -1.59091
C         -2.95671        2.75883       -1.73333
H         -1.89954        3.03631       -1.74723
C         -5.65213        2.06442       -1.66795
H         -6.71491        1.81660       -1.64828
C         -3.92308        3.76011       -1.76577
H         -3.65304        4.81625       -1.81801
C         -5.26342        3.39803       -1.72407
F         -6.19730        4.34861       -1.74657
C         -3.95602       -2.19115       -0.26524
C         -4.21884       -0.84957        1.72098
C         -5.87823       -2.51734        1.16067
C         -5.40482       -1.52526        2.01402
C         -5.14679       -2.85067        0.01839
H         -3.36891       -2.48950       -1.13823
H         -5.49975       -3.64092       -0.64860
H         -6.80960       -3.04103        1.38863
H         -5.96133       -1.26841        2.91869
H         -3.86119       -0.07406        2.40045
C         -0.65587        1.26713        2.01768
C         -2.84390        2.02855        1.35493
C         -1.53742        3.31597        2.93356
C         -2.70329        3.13555        2.18872
C         -0.51427        2.37365        2.85289
H          0.13511        0.51871        1.95626
H          0.39857        2.48913        3.44282
H         -1.43310        4.18771        3.58428
H         -3.51561        3.86310        2.25560
H         -3.77118        1.89933        0.79604
