88
Cat028.ts34.5.log	Energy: -2244868.5428096
C          0.14826       -0.80639       -3.31330
H          0.56188       -1.65997       -3.85743
H         -0.90928       -0.62110       -3.54177
C          0.99406        0.30563       -3.03992
H          2.05315        0.25444       -3.31537
H          0.59276        1.32112       -3.14680
H          0.64385        0.64145       -1.45583
Co         0.68097       -0.83579       -1.38234
C         -2.31097        0.70466       -1.13932
C         -2.33419       -2.17577       -1.03433
C         -1.54201       -0.64045        1.33090
C          2.42760       -1.48737        1.46818
C          3.94081       -0.55568       -0.80276
C          2.32345        1.26497        0.79985
P          2.25179       -0.41230       -0.00876
P         -1.29210       -0.69863       -0.54021
C          1.03465       -2.52877       -1.40758
O          1.23956       -3.66835       -1.37718
H         -1.86496        1.63571       -0.76702
H         -2.25378        0.71529       -2.23819
H         -3.36131        0.66588       -0.82170
H         -2.30895       -2.15857       -2.13525
H         -1.74694       -3.05414       -0.72536
C         -3.73131       -2.24758       -0.51329
C         -4.02901       -2.98237        0.64223
H         -3.24267       -3.56817        1.12607
C         -4.77310       -1.54662       -1.13689
H         -4.56345       -0.99803       -2.05951
C         -5.31847       -2.98241        1.16945
H         -5.53672       -3.56097        2.07032
C         -6.07024       -1.52591       -0.61752
C         -7.15015       -0.71874       -1.27769
H         -7.25061        0.26733       -0.79360
H         -6.93018       -0.54184       -2.34008
H         -8.12823       -1.21683       -1.20693
C         -6.33054       -2.25174        0.55239
H         -7.34007       -2.25528        0.97264
H         -1.98396       -1.60616        1.61904
H         -0.53138       -0.60779        1.75933
C         -2.36300        0.49073        1.86946
C         -1.74823        1.60557        2.44913
H         -0.66213        1.61984        2.57205
C         -3.76125        0.47884        1.77663
H         -4.25825       -0.39326        1.34681
C         -2.50958        2.68712        2.89121
H         -2.01429        3.54989        3.34385
C         -4.54006        1.55262        2.21228
C         -6.03407        1.51909        2.06352
H         -6.39256        0.49485        1.88818
H         -6.53911        1.91635        2.95688
H         -6.35759        2.13598        1.20817
C         -3.89533        2.66648        2.76709
H         -4.48734        3.51737        3.11563
H          2.54370       -2.52986        1.13781
H          3.28463       -1.20769        2.09799
H          1.50177       -1.42528        2.05819
H          3.89340       -1.50786       -1.35244
H          3.97029        0.23990       -1.56300
C          5.13096       -0.51654        0.10306
C          5.77191        0.68268        0.43649
H          5.43854        1.62223       -0.00959
C          5.61313       -1.70237        0.67522
H          5.13038       -2.64849        0.41183
C          6.84514        0.68868        1.32583
H          7.33476        1.63294        1.57661
C          6.68913       -1.71752        1.56541
C          7.19955       -3.00847        2.13746
H          6.45928       -3.81498        2.03918
H          8.11532       -3.33474        1.61708
H          7.45310       -2.90351        3.20303
C          7.29806       -0.49878        1.89161
H          8.13952       -0.48460        2.58981
H          1.61312        1.21333        1.63950
H          3.32847        1.39370        1.23285
C          1.95407        2.39072       -0.11685
C          2.86645        2.93238       -1.02802
H          3.89731        2.57383       -1.04979
C          0.64604        2.89062       -0.11556
H         -0.07495        2.48151        0.59541
C          2.47022        3.93380       -1.91284
H          3.19362        4.34884       -2.61893
C          0.22992        3.89671       -0.99069
C         -1.18556        4.39796       -0.96650
H         -1.70694        4.09006       -0.04866
H         -1.22369        5.49588       -1.03216
H         -1.75886        4.00280       -1.82145
C          1.16326        4.41167       -1.89900
H          0.86377        5.20088       -2.59423
