88
Cat093.ts34.5.log	Energy: -2149886.7973408
C          1.53989       -2.52526       -1.47628
H          1.56497       -2.52182       -2.56893
H          2.53366       -2.51431       -1.01986
C          0.46915       -3.18802       -0.81902
H         -0.33686       -3.62790       -1.41409
H          0.68780       -3.78162        0.07665
H         -0.01324       -2.10113        0.34568
Co         0.24820       -1.14916       -0.76530
C          2.22865       -0.49147        1.99382
O          3.13573        0.05869       -0.57615
O          1.42885        1.57813        0.62768
C         -1.61874        0.00208        1.84676
O         -2.03534        1.12011       -0.47127
O         -2.92223       -1.23266       -0.10725
P         -1.52622       -0.36162        0.04377
P          1.72348       -0.01571        0.27441
C          0.08280       -0.51557       -2.37857
O          0.03759       -0.09856       -3.45391
H          1.24655       -0.55609        2.49523
C          2.83606       -1.88941        1.96665
H          3.02272       -2.25122        2.98981
H          2.17118       -2.61159        1.47028
H          3.79618       -1.89314        1.42740
C          3.08586        0.50116        2.76771
H          2.65994        1.51295        2.73415
H          3.15683        0.19071        3.82290
H          4.11313        0.54471        2.37709
C          4.16661        1.01611       -0.40757
H          4.22140        1.60381       -1.34168
H          3.92047        1.71915        0.40394
C          5.49685        0.33544       -0.15729
H          6.26810        1.11915       -0.05014
H          5.45940       -0.19131        0.81263
C          5.89485       -0.64470       -1.25155
H          5.96236       -0.10450       -2.21248
H          5.08164       -1.37781       -1.37805
C          7.20503       -1.35955       -0.96643
H          8.03909       -0.64687       -0.85974
H          7.14800       -1.93857       -0.03026
H          7.46840       -2.06034       -1.77304
C          0.95867        2.45652       -0.38220
H          1.82879        2.90712       -0.89514
H          0.38444        1.88779       -1.13139
C          0.09225        3.52639        0.24064
H         -0.28060        4.17540       -0.57141
H         -0.79710        3.03750        0.67031
C          0.79626        4.36528        1.29624
H          1.67261        4.86369        0.84413
H         -0.74089        0.65072        2.01964
C         -0.11679        5.40074        1.93193
H         -0.51329        6.10218        1.17985
H         -0.98180        4.92078        2.41777
H          0.40734        5.99418        2.69646
H          1.19837        3.69254        2.07172
C         -2.88569        0.75480        2.23518
H         -2.89315        0.94330        3.32047
H         -2.96108        1.71741        1.71372
H         -3.77900        0.16257        1.98496
C         -1.46614       -1.28266        2.65265
H         -0.57485       -1.85699        2.35843
H         -1.38111       -1.05191        3.72584
H         -2.34383       -1.93262        2.51526
C         -2.48983        1.32237       -1.79788
H         -1.70249        1.84635       -2.36806
H         -2.66516        0.35646       -2.30048
C         -3.76704        2.13405       -1.77575
H         -4.13430        2.22471       -2.81333
H         -4.52960        1.56201       -1.21922
C         -3.60515        3.51676       -1.16073
H         -2.84187        4.07737       -1.72953
H         -3.19813        3.40672       -0.14244
C         -4.90159        4.30812       -1.11681
H         -5.31683        4.45762       -2.12674
H         -5.66723        3.78412       -0.52222
H         -4.75524        5.30198       -0.66728
C         -3.03468       -2.34891       -0.97231
H         -3.95027       -2.20485       -1.57143
H         -2.17169       -2.36730       -1.65969
C         -3.11204       -3.63643       -0.17938
H         -3.13942       -4.48292       -0.88849
H         -2.17482       -3.74470        0.39476
C         -4.30488       -3.70538        0.76335
H         -5.23634       -3.66077        0.17154
H         -4.30840       -2.80008        1.39287
C         -4.30615       -4.94752        1.63854
H         -4.31924       -5.86765        1.03202
H         -3.40577       -4.98714        2.27305
H         -5.18235       -4.97574        2.30388
