100
Cat080.ts34.5.log	Energy: -2343451.7005564
C         -1.90972        1.61759       -3.03008
H         -2.05395        1.11949       -3.99365
H         -2.84040        2.01651       -2.60909
C         -0.70053        2.34811       -2.82323
H          0.07693        2.31597       -3.59564
H         -0.76506        3.33940       -2.35704
H         -0.26587        1.92336       -1.30385
Co        -0.71024        0.58757       -1.80057
C         -2.17568        1.68287        1.11929
C         -3.92945        0.13578       -0.42502
C         -1.72517       -1.17949        0.92550
C          1.67789       -1.66823       -0.85631
C          2.55853        0.80907       -2.16425
C          1.57600        0.83355        0.67707
P          1.23759        0.11818       -1.02134
P         -2.09359        0.31809       -0.13157
C         -0.69186       -0.78248       -2.86278
O         -0.65881       -1.69230       -3.57721
H         -2.88728        1.41960        1.91959
H         -1.18250        1.74621        1.59426
C         -2.52036        3.03199        0.50559
H         -1.83751        3.22778       -0.33822
H         -3.53571        3.00285        0.07284
C         -2.43789        4.18131        1.50006
H         -1.41980        4.21622        1.92981
H         -3.11338        3.98103        2.35154
C         -2.77583        5.53495        0.89132
H         -2.10266        5.72338        0.03599
H         -3.79346        5.49476        0.46396
C         -2.68139        6.68461        1.88120
H         -2.93134        7.64805        1.41164
H         -1.66458        6.77114        2.29721
H         -3.37030        6.53914        2.72887
H         -4.21333        1.02991       -1.00438
H         -4.43815        0.20799        0.54957
C         -4.36825       -1.10509       -1.14615
C         -5.28914       -1.98339       -0.56069
H         -5.70576       -1.74385        0.42124
C         -3.88434       -1.41061       -2.42422
H         -3.18635       -0.72269       -2.89949
C         -5.69315       -3.14479       -1.21784
H         -6.41467       -3.81357       -0.74173
C         -4.27797       -2.57421       -3.07941
H         -3.87040       -2.79557       -4.06864
C         -5.18016       -3.45033       -2.47709
H         -5.48880       -4.36396       -2.99074
H         -0.62861       -1.20612        0.99427
H         -2.01430       -2.03545        0.29500
C         -2.33479       -1.26507        2.28916
C         -3.52341       -1.97126        2.51023
H         -3.98890       -2.49825        1.67489
C         -1.73061       -0.63116        3.38475
H         -0.79028       -0.09090        3.24449
C         -4.10293       -2.02320        3.77669
H         -5.02953       -2.58356        3.92494
C         -2.30544       -0.68270        4.65198
H         -1.81396       -0.18205        5.48980
C         -3.49975       -1.37413        4.85252
H         -3.95223       -1.41552        5.84604
H          1.11277       -2.02473        0.02083
H          1.21323       -2.17116       -1.71934
C          3.14290       -2.06579       -0.73260
H          3.63501       -1.95569       -1.71397
H          3.67207       -1.38872       -0.04593
C          3.32415       -3.49534       -0.24296
H          2.83168       -4.19682       -0.94094
H          2.79933       -3.60847        0.72263
C          4.78436       -3.88394       -0.06202
H          5.31429       -3.76929       -1.02465
H          5.25704       -3.16459        0.63004
C          4.97267       -5.29828        0.46153
H          6.03723       -5.54952        0.58412
H          4.53210       -6.04127       -0.22273
H          4.48569       -5.42656        1.44180
H          2.00341        1.52949       -2.77912
H          2.82662       -0.02448       -2.83095
C          3.77661        1.47092       -1.59871
C          5.00491        0.80804       -1.49001
H          5.08883       -0.22677       -1.82668
C          3.70843        2.80742       -1.17822
H          2.76643        3.35352       -1.28523
C          6.12113        1.44907       -0.95760
H          7.06847        0.90983       -0.88240
C          4.82088        3.45074       -0.64012
H          4.74252        4.49178       -0.31756
C          6.03305        2.77066       -0.52217
H          6.90776        3.27288       -0.10268
H          0.58285        0.83101        1.14685
H          1.83081        1.89069        0.50965
C          2.56732        0.16853        1.58383
C          3.88304        0.63357        1.69927
H          4.18939        1.52424        1.14915
C          2.19483       -0.95590        2.33430
H          1.16376       -1.31732        2.29573
C          4.80913       -0.03558        2.49570
H          5.83285        0.34124        2.55929
C          3.11919       -1.62799        3.13026
H          2.80559       -2.50685        3.69875
C          4.43677       -1.17783        3.20353
H          5.16549       -1.70601        3.82285
