100
Cat110.ts34.5.log	Energy: -2343446.0770863
C         -0.20318       -1.46623       -2.98667
H         -0.06935       -2.53465       -3.17912
H         -1.08233       -1.04989       -3.49398
C          0.95686       -0.64611       -2.86014
H          1.94773       -1.11207       -2.86887
H          0.96539        0.32323       -3.37451
H          0.59259        0.29497       -1.58564
Co         0.07691       -0.98901       -1.05974
C         -2.12234        1.44906       -1.88245
C         -3.20965       -1.24455       -1.53392
C         -2.52828        0.33137        0.92836
C          0.90706       -0.76484        2.27839
C          2.93191       -1.81881        0.36839
C          2.21847        1.14586        0.72638
P          1.51930       -0.57783        0.51114
P         -1.90457       -0.07402       -0.80704
C         -0.08782       -2.66644       -0.66898
O         -0.22781       -3.79820       -0.46604
H         -1.65830        1.07536       -2.81460
C         -3.52876        1.92475       -2.21918
H         -3.47057        2.78082       -2.91156
H         -4.12231        1.14938       -2.72051
H         -4.07668        2.25575       -1.32653
C         -1.26682        2.60591       -1.38120
H         -0.28048        2.26093       -1.03913
H         -1.10448        3.33967       -2.18655
H         -1.76258        3.13191       -0.55340
H         -3.37140       -0.89000       -2.56221
H         -2.67104       -2.19690       -1.62402
C         -4.52434       -1.45690       -0.84915
C         -5.68006       -0.80247       -1.29334
H         -5.61437       -0.13794       -2.15684
C         -4.62880       -2.35060        0.24087
C         -3.45949       -3.18331        0.67836
H         -2.56136       -2.58510        0.88603
H         -3.16403       -3.90030       -0.10437
H         -3.69754       -3.75614        1.58487
C         -6.90740       -0.96974       -0.65790
H         -7.78944       -0.44178       -1.02780
C         -5.86471       -2.49362        0.88149
H         -5.93879       -3.17571        1.73295
C         -6.99723       -1.80740        0.45047
H         -7.94904       -1.94091        0.96976
H         -3.11809       -0.55107        1.21610
H         -1.61823        0.30125        1.53759
C         -3.32189        1.56598        1.24724
C         -4.70682        1.57872        1.04205
H         -5.18888        0.68381        0.64623
C         -2.70823        2.70613        1.80905
C         -1.24938        2.72096        2.16623
H         -0.61237        2.41869        1.32297
H         -1.03606        2.02876        2.99827
H         -0.93027        3.72338        2.48283
C         -5.47495        2.70426        1.32150
H         -6.55280        2.68287        1.14364
C         -3.49318        3.83387        2.07743
H         -3.01293        4.71965        2.50266
C         -4.86282        3.84757        1.82925
H         -5.44995        4.74264        2.04793
H          0.32039        0.16476        2.39455
C         -0.04423       -1.94193        2.42725
H         -0.47146       -1.96527        3.44243
H         -0.86514       -1.87797        1.70412
H          0.46799       -2.90264        2.26019
C          1.96345       -0.79742        3.37561
H          2.76387       -0.05438        3.25077
H          1.49211       -0.61544        4.35475
H          2.43327       -1.79002        3.43035
H          2.58529       -2.65537        0.99799
H          2.82049       -2.16883       -0.66543
C          4.37463       -1.51757        0.65111
C          4.92357       -1.75511        1.91827
H          4.28230       -2.14775        2.70822
C          5.22930       -1.07542       -0.38337
C          4.73545       -0.89882       -1.78715
H          3.88012       -0.21064       -1.83837
H          4.40990       -1.86072       -2.21766
H          5.52490       -0.49226       -2.43268
C          6.26868       -1.52398        2.19235
H          6.66356       -1.72054        3.19179
C          6.57637       -0.83709       -0.08971
H          7.23010       -0.48250       -0.89114
C          7.10022       -1.04768        1.18260
H          8.15750       -0.85454        1.37906
H          1.29710        1.74866        0.78470
H          2.67410        1.18286        1.72254
C          3.14950        1.75489       -0.28252
C          2.69074        2.07184       -1.56711
H          1.64766        1.87654       -1.81457
C          4.48152        2.07352        0.06001
C          5.01218        1.88505        1.45087
H          4.93450        0.84162        1.78801
H          4.46294        2.51051        2.17417
H          6.07139        2.16883        1.50453
C          3.52888        2.62204       -2.53152
H          3.14026        2.84798       -3.52718
C          5.31475        2.61850       -0.92394
H          6.35060        2.84945       -0.66088
C          4.85901        2.88054       -2.21276
H          5.53648        3.30477       -2.95769
