92
Cat114.ts34.5.log	Energy: -2433608.3281467
C         -0.25183       -2.75123       -1.85114
H         -0.50226       -3.69055       -1.35136
H         -0.95549       -2.48923       -2.64977
C          1.11360       -2.37377       -1.98006
H          1.88981       -2.97303       -1.49529
H          1.45524       -1.92770       -2.92131
H          1.00712       -0.73498       -1.60883
Co         0.17196       -1.29260       -0.52900
C         -1.57112        0.67427       -2.73297
O         -2.97492       -0.90858       -1.16036
O         -1.79975        1.13970       -0.01176
C          0.77740        0.96393        2.03160
O          2.78607       -0.55710        1.19345
O          1.93824        1.25958       -0.45450
P          1.36937        0.04534        0.54141
P         -1.49235       -0.12723       -1.07083
C         -0.12995       -2.39629        0.79892
O         -0.29629       -3.16264        1.64187
H         -1.17839       -0.14644       -3.36318
C         -2.94253        1.07237       -3.26353
H         -2.85608        1.35783       -4.32451
H         -3.66262        0.24732       -3.18427
H         -3.35034        1.93607       -2.71942
C         -0.56803        1.82374       -2.77790
H          0.40608        1.53977       -2.35278
H         -0.41009        2.14768       -3.81817
H         -0.94645        2.69110       -2.21526
C         -3.29181       -1.90139       -0.27387
C         -3.30703       -1.65415        1.09768
H         -3.06672       -0.65259        1.46012
C         -3.60876       -3.16410       -0.77096
H         -3.59081       -3.33149       -1.84905
C         -3.60013       -2.67817        2.00309
C         -3.50904       -2.42474        3.47850
H         -3.84714       -1.41058        3.73748
H         -4.10522       -3.14728        4.05361
H         -2.46134       -2.51704        3.81062
C         -3.92880       -4.17933        0.12552
H         -4.17903       -5.17350       -0.25273
C         -3.91680       -3.94376        1.49961
H         -4.15072       -4.75574        2.19270
C         -2.77877        2.09235       -0.01553
C         -4.13249        1.77279       -0.12399
H         -4.42643        0.73263       -0.26458
C         -2.38166        3.41941        0.16954
H         -1.31925        3.64490        0.27672
C         -5.10540        2.77793       -0.07653
C         -6.55514        2.41886       -0.22945
H         -6.82138        1.55543        0.39872
H         -7.21047        3.25776        0.04325
H         -6.78271        2.14111       -1.27172
C         -3.34699        4.41885        0.22475
H         -3.04019        5.45740        0.37072
C         -4.69955        4.10485        0.09814
H         -5.45029        4.89778        0.14196
H          0.22996        1.80892        1.57783
C         -0.23135        0.11097        2.79363
H         -0.66145        0.69768        3.61993
H         -1.04882       -0.21635        2.14083
H          0.24409       -0.78254        3.22686
C          1.86776        1.48610        2.96152
H          2.55715        2.18169        2.46814
H          1.39603        2.01836        3.80274
H          2.45926        0.65469        3.37040
C          3.46750       -1.55935        0.55494
C          4.06231       -1.33565       -0.68590
H          3.95092       -0.35831       -1.16022
C          3.55622       -2.80520        1.17256
H          3.06548       -2.95776        2.13506
C          4.75834       -2.36020       -1.33564
C          5.34832       -2.12641       -2.69597
H          5.79975       -1.12629       -2.77369
H          6.11925       -2.87206       -2.93608
H          4.56977       -2.19256       -3.47438
C          4.25477       -3.82523        0.53330
H          4.32987       -4.80670        1.00753
C          4.85126       -3.60741       -0.70838
H          5.39332       -4.41870       -1.20091
C          2.61021        2.39248       -0.08579
C          3.95115        2.33917        0.29121
H          4.45215        1.37080        0.33846
C          1.93675        3.61305       -0.14797
H          0.89426        3.62572       -0.46990
C          4.63666        3.50832        0.63965
C          6.07166        3.43500        1.07450
H          6.16247        2.92394        2.04663
H          6.67885        2.86585        0.35406
H          6.51360        4.43553        1.17879
C          2.61599        4.77808        0.19393
H          2.09765        5.73895        0.14953
C          3.95245        4.72788        0.58853
H          4.47551        5.64941        0.85610
