86
Cat207.ts34.5.log	Energy: -2008924.5867079
C          0.71684       -0.72489        3.21692
H         -0.07011       -1.15687        3.84273
H          1.67332       -1.24951        3.28908
C          0.69886        0.65615        2.95801
H         -0.09242        1.27737        3.38404
H          1.65864        1.17864        2.87703
H          0.65443        0.94253        1.18621
Co         0.05771       -0.39586        1.30691
C          2.49888        0.73207       -0.82357
C          3.21917       -1.51684        0.97580
C          1.62202       -1.92701       -1.50487
C         -2.49797       -0.05553       -1.05428
C         -3.13394        0.87366        1.64248
C         -1.15885        2.40038       -0.13965
P         -1.66461        0.68764        0.46644
P          1.77999       -0.80661       -0.00650
C         -0.71888       -1.92198        1.52929
O         -1.20867       -2.94840        1.75235
H          1.57888        1.17803       -1.24756
C          3.49774        0.60042       -1.97957
H          3.15652       -0.12390       -2.73198
H          4.46112        0.22150       -1.60805
C          3.72950        1.95648       -2.64361
H          4.44620        1.85163       -3.47459
H          2.78189        2.30575       -3.09357
C          4.22530        2.99295       -1.64240
H          4.34693        3.97458       -2.12872
H          5.22897        2.69677       -1.28672
C          3.28616        3.10073       -0.44730
H          2.31904        3.52191       -0.77822
H          3.69019        3.80357        0.29953
C          3.03180        1.74108        0.19622
H          3.97276        1.36242        0.63415
H          2.32023        1.85086        1.02675
H          3.28597       -0.77572        1.79316
C          2.86934       -2.86359        1.61122
H          3.47836       -3.02617        2.51495
H          1.81088       -2.93340        1.89560
H          3.09242       -3.69280        0.92395
C          4.58456       -1.59847        0.30400
H          5.00419       -0.61047        0.07611
H          5.29909       -2.10710        0.97246
H          4.54914       -2.17862       -0.63187
H          2.63963       -2.05542       -1.91373
C          1.06427       -3.30546       -1.16513
H          0.89827       -3.87797       -2.09220
H          1.73999       -3.89228       -0.53261
H          0.10106       -3.23846       -0.63960
C          0.74973       -1.26068       -2.56570
H          1.17464       -0.32580       -2.95470
H          0.60658       -1.94033       -3.42107
H         -0.24070       -1.02644       -2.15649
H         -1.82021        0.25064       -1.87488
C         -3.91282        0.41086       -1.41546
H         -3.97497        1.50320       -1.48856
H         -4.60677        0.10793       -0.61283
C         -4.39070       -0.21075       -2.72647
H         -5.40540        0.15103       -2.96041
H         -3.73995        0.13644       -3.54998
C         -4.36406       -1.73159       -2.66875
H         -4.67618       -2.16339       -3.63360
H         -5.09941       -2.07716       -1.91965
C         -2.97917       -2.22882       -2.27885
H         -2.26783       -1.99428       -3.09153
H         -2.97352       -3.32559       -2.17070
C         -2.48450       -1.58379       -0.98966
H         -3.11084       -1.91979       -0.14426
H         -1.46788       -1.92403       -0.76213
H         -3.68761       -0.05970        1.42766
C         -2.70498        0.80215        3.10243
H         -3.58768        0.68411        3.75170
H         -2.02559       -0.04205        3.27669
H         -2.19226        1.72550        3.41482
C         -4.08225        2.05199        1.43928
H         -4.48123        2.12494        0.42180
H         -4.94188        1.95539        2.12313
H         -3.59161        3.00643        1.68000
H         -0.22898        2.12859       -0.67029
C         -2.03893        3.14280       -1.13819
H         -1.52430        4.06569       -1.45369
H         -2.23085        2.55598       -2.04683
H         -3.00502        3.44378       -0.70939
C         -0.75860        3.31482        1.01460
H         -0.07455        2.81752        1.71359
H         -0.24838        4.21094        0.62556
H         -1.63374        3.66093        1.58448
