90
Cat282.ts34.5.log	Energy: -3773778.0655059
C          2.29834        2.16996       -2.31934
H          2.37902        1.98132       -3.39359
H          1.91126        3.16461       -2.07165
C          3.22714        1.55773       -1.44142
H          3.95701        0.83923       -1.82576
H          3.59802        2.12791       -0.58323
H          2.17072        1.01886       -0.17103
Co         1.41104        0.61801       -1.36628
C          0.23061        3.31745        0.22891
O         -1.36242        2.45754       -1.63893
O         -1.13106        0.96054        0.45219
C         -0.10357       -2.25037       -0.40119
O          2.50042       -2.19718       -0.21375
O          1.24138       -0.70323        1.44276
P          1.25268       -1.08096       -0.18788
P         -0.17901        1.78851       -0.65502
C          1.21586       -0.24763       -2.87846
O          1.13698       -0.81267       -3.87730
C         -0.06004        4.59888       -0.26009
H         -0.61631        4.70392       -1.19362
C          0.93822        3.19274        1.42792
H          1.17667        2.19649        1.81365
C          0.33707        5.72505        0.44438
H          0.11952        6.73065        0.07970
C          1.33142        4.31734        2.14828
H          1.86952        4.18846        3.08744
C          1.03274        5.59541        1.65591
O          1.37190        6.74130        2.27045
C          2.06620        6.68213        3.48645
H          3.04339        6.18028        3.37625
H          2.23379        7.71922        3.80258
H          1.48352        6.16088        4.26599
C         -1.99952        1.64781       -2.54310
C         -3.26598        1.14707       -2.23860
H         -3.74309        1.43120       -1.30009
C         -1.38413        1.31731       -3.74958
H         -0.40496        1.73775       -3.97928
C         -3.90029        0.28132       -3.12383
H         -4.88794       -0.12183       -2.89418
C         -2.00931        0.44198       -4.63265
H         -1.52212        0.15231       -5.56442
C         -3.25924       -0.08268       -4.30783
Cl        -4.02604       -1.20698       -5.38052
C         -2.35152        1.27139        0.97062
C         -3.21506        0.19469        1.20056
H         -2.88765       -0.80875        0.92120
C         -2.76134        2.56975        1.28159
H         -2.09724        3.41391        1.10229
C         -4.47636        0.40827        1.74422
H         -5.15380       -0.42861        1.92150
C         -4.02827        2.78428        1.81946
H         -4.35707        3.79593        2.06259
C         -4.88094        1.70727        2.05193
Cl        -6.45505        1.98237        2.72344
C         -1.21818       -1.84479       -1.15189
H         -1.23455       -0.85192       -1.60404
C         -0.09333       -3.54016        0.14206
H          0.77583       -3.88969        0.70078
C         -2.29924       -2.69033       -1.33282
H         -3.16024       -2.38376       -1.92917
C         -1.17800       -4.39497       -0.02440
H         -1.14123       -5.39059        0.41753
C         -2.29426       -3.97080       -0.76011
O         -3.38716       -4.72045       -0.97221
C         -3.44201       -6.01474       -0.43593
H         -3.37408       -6.00432        0.66587
H         -4.41264       -6.43387       -0.72864
H         -2.63961       -6.65789       -0.83706
C          3.79279       -1.77789       -0.35723
C          4.50354       -2.19274       -1.48279
H          4.00305       -2.82574       -2.21749
C          4.40052       -0.95406        0.59273
H          3.82919       -0.61848        1.45962
C          5.82281       -1.78902       -1.66207
H          6.38755       -2.10460       -2.54068
C          5.71882       -0.54507        0.41456
H          6.20323        0.10314        1.14644
C          6.42462       -0.96307       -0.71251
Cl         8.06455       -0.45044       -0.93700
C          0.85588       -1.57144        2.42661
C          1.73907       -2.53424        2.91734
H          2.74249       -2.61282        2.49641
C         -0.42992       -1.46136        2.95425
H         -1.09594       -0.69489        2.55825
C          1.32662       -3.40148        3.92567
H          2.00432       -4.16219        4.31637
C         -0.84490       -2.32479        3.96203
H         -1.85054       -2.24973        4.37870
C          0.03447       -3.29668        4.43895
Cl        -0.48232       -4.38317        5.68680
