80
Cat352.ts34.5.log	Energy: -2053689.8829416
C         -1.53355       -1.18232        2.52265
H         -1.04290       -1.39836        3.47597
H         -2.43519       -0.56604        2.61647
C         -1.46413       -2.13816        1.48458
H         -0.91232       -3.07025        1.63932
H         -2.34226       -2.26277        0.83930
H         -0.88578       -1.31841        0.09193
Co        -0.18013       -0.56573        1.14293
C         -3.00570        0.42835       -0.35035
C         -2.08588        2.28598        1.65064
C         -0.81258        2.20469       -0.98980
C          2.67175        0.04102       -0.58721
C          2.76324       -2.20418        1.17140
C          1.25607       -2.31854       -1.47280
P          1.55898       -1.28104        0.05810
P         -1.42378        1.07043        0.37424
C          0.82114        0.06488        2.39393
O          1.52138        0.44295        3.23786
C         -2.92616       -0.57316       -1.33394
H         -1.94458       -0.93241       -1.65081
C         -4.28914        0.81025        0.05684
H         -4.42661        1.56976        0.82675
C         -4.06284       -1.13735       -1.89762
H         -3.95282       -1.91140       -2.66290
C         -5.43160        0.23229       -0.49905
H         -6.41570        0.55534       -0.14776
C         -5.34539       -0.74644       -1.48962
C         -6.56933       -1.37257       -2.09006
H         -7.48965       -0.93992       -1.67361
H         -6.59363       -1.23274       -3.18254
H         -6.59308       -2.45834       -1.90407
H         -2.90629        1.71160        2.11340
C         -1.09037        2.58012        2.76700
H         -1.52376        3.31302        3.46702
H         -0.84700        1.67558        3.33646
H         -0.14414        2.99709        2.39226
C         -2.66769        3.57552        1.07707
H         -3.35928        3.40204        0.24008
H         -3.21982        4.12078        1.86005
H         -1.87357        4.24750        0.71779
H         -1.61139        2.93864       -1.18345
C          0.44030        2.93016       -0.51141
H          0.85362        3.55297       -1.32094
H          0.24097        3.58871        0.34566
H          1.21670        2.21296       -0.21017
C         -0.54895        1.43765       -2.27710
H         -1.47806        1.09397       -2.75154
H         -0.01695        2.07961       -2.99737
H          0.08751        0.56217       -2.08257
C          3.38083        0.82951        0.33532
H          3.31607        0.61892        1.40445
C          2.77653        0.38639       -1.93860
H          2.24829       -0.18641       -2.70171
C          4.15349        1.90629       -0.07989
H          4.68915        2.49684        0.66889
C          3.54640        1.47398       -2.35060
H          3.59935        1.71585       -3.41590
C          4.24843        2.25735       -1.43329
C          5.05854        3.44291       -1.86719
H          4.58501        4.38422       -1.54299
H          6.06769        3.42231       -1.42757
H          5.16369        3.48213       -2.96049
H          2.89304       -1.45086        1.96717
C          2.09604       -3.40749        1.82456
H          2.72140       -3.79208        2.64578
H          1.11689       -3.13015        2.23950
H          1.95079       -4.23285        1.11015
C          4.14794       -2.53551        0.62874
H          4.58982       -1.69644        0.07219
H          4.82372       -2.77036        1.46752
H          4.13567       -3.41448       -0.02947
H          0.81119       -1.56644       -2.14967
C          2.49513       -2.90409       -2.14469
H          2.25028       -3.21136       -3.17456
H          3.33717       -2.20109       -2.19333
H          2.83750       -3.80430       -1.61451
C          0.20211       -3.40442       -1.27965
H         -0.75250       -3.00052       -0.92132
H          0.01695       -3.91029       -2.24088
H          0.53153       -4.17220       -0.56413
