108
Cat414.ts34.5.log	Energy: -2346496.6692896
C         -0.69613        0.15381       -3.51603
H         -0.39838       -0.61291       -4.23722
H         -1.75857        0.41215       -3.57612
C          0.23812        1.17302       -3.18523
H          1.24867        1.14304       -3.60631
H         -0.12961        2.20280       -3.09167
H          0.10630        1.27141       -1.50208
Co         0.05426       -0.18901       -1.68153
C         -1.49094        1.40673        0.82775
C         -3.24437        0.54250       -1.26197
C         -2.14401       -1.40657        0.76280
C          1.49152       -1.26051        1.13963
C          3.27910       -0.97083       -1.06900
C          2.21335        1.44961        0.44734
P          1.75703       -0.18053       -0.32933
P         -1.68882        0.01095       -0.36309
C          0.32272       -1.82793       -2.15915
O          0.52112       -2.91740       -2.50218
C         -1.36629        1.26005        2.21307
H         -1.44395        0.27627        2.67510
C         -1.37629        2.69901        0.29113
H         -1.44963        2.83458       -0.79256
C         -1.11621        2.36945        3.02246
H         -1.00362        2.23384        4.10140
C         -1.15987        3.82467        1.08712
C         -1.10322        5.19544        0.47707
H         -0.72783        5.16120       -0.55599
H         -2.10649        5.65249        0.44735
H         -0.45444        5.86974        1.05486
C         -1.01506        3.64143        2.46960
H         -0.82336        4.50462        3.11278
H         -2.82874        1.26608       -1.98983
C         -4.34794        1.27466       -0.49701
H         -3.93011        2.10718        0.08831
H         -4.82161        0.59339        0.22652
C         -5.41009        1.79187       -1.46507
H         -6.21189        2.30352       -0.90767
H         -4.95594        2.55417       -2.12447
C         -5.98994        0.67008       -2.32032
H         -6.72350        1.07216       -3.03810
H         -6.54558       -0.02843       -1.66813
C         -4.89454       -0.09920       -3.05090
H         -4.41505        0.56214       -3.79557
H         -5.32592       -0.94074       -3.61709
C         -3.83243       -0.60822       -2.08175
H         -4.29591       -1.33906       -1.39708
H         -3.03239       -1.14312       -2.61686
H         -1.29695       -1.40240        1.47495
C         -2.09504       -2.76882        0.06485
H         -1.14658       -2.88223       -0.47554
H         -2.89210       -2.83008       -0.69464
C         -2.26358       -3.90784        1.06597
H         -2.26399       -4.87354        0.53446
H         -1.38684       -3.91891        1.73515
C         -3.52635       -3.75975        1.90577
H         -3.58848       -4.56718        2.65376
H         -4.41472       -3.86869        1.25691
C         -3.57546       -2.39597        2.58381
H         -2.74903       -2.32020        3.31492
H         -4.51098       -2.27978        3.15549
C         -3.44319       -1.27215        1.56029
H         -4.29758       -1.33129        0.86518
H         -3.51313       -0.29054        2.05218
C          1.49294       -2.65350        0.96972
H          1.69984       -3.09250       -0.00844
C          1.18771       -0.75112        2.40722
H          1.17094        0.32653        2.57156
C          1.22061       -3.49421        2.04415
H          1.23966       -4.57698        1.89860
C          0.87962       -1.58304        3.49011
C          0.49178       -0.99288        4.81517
H          0.88221        0.02838        4.93125
H         -0.60621       -0.93844        4.91396
H          0.86106       -1.60035        5.65442
C          0.91083       -2.96682        3.29665
H          0.68790       -3.63678        4.13159
H          2.85358       -1.93125       -1.41498
C          4.46424       -1.31062       -0.16675
H          4.12571       -1.82908        0.74362
H          4.96308       -0.38657        0.16328
C          5.47513       -2.16563       -0.92765
H          6.33559       -2.40059       -0.27996
H          5.00808       -3.13298       -1.18747
C          5.94315       -1.47142       -2.20288
H          6.64516       -2.11553       -2.75709
H          6.50812       -0.56145       -1.92899
C          4.76702       -1.07922       -3.09118
H          4.27213       -1.99258       -3.46734
H          5.12098       -0.52984       -3.97881
C          3.74117       -0.24440       -2.33143
H          4.19025        0.72656       -2.05718
H          2.86652       -0.02685       -2.96255
H          1.29853        1.66529        1.03272
C          2.34776        2.60233       -0.55084
H          1.49021        2.61212       -1.23748
H          3.24660        2.45289       -1.17363
C          2.44779        3.93835        0.18017
H          2.56879        4.75721       -0.54793
H          1.49354        4.11960        0.70286
C          3.58141        3.95821        1.19870
H          3.58484        4.91253        1.75044
H          4.55005        3.90248        0.66919
C          3.47714        2.78136        2.16174
H          2.56744        2.89065        2.78044
H          4.33173        2.77503        2.85796
C          3.41042        1.46073        1.40069
H          4.33547        1.35194        0.81159
H          3.38343        0.60911        2.09595
