100
Cat416.ts34.5.log	Energy: -2624679.9738613
C          0.35756       -0.43766        3.43617
H          0.08768       -1.35475        3.96824
H          1.37717       -0.09044        3.63328
C         -0.65461        0.52497        3.18230
H         -1.69532        0.30726        3.44969
H         -0.40554        1.58504        3.31321
H         -0.38416        0.94843        1.58556
Co        -0.15971       -0.50908        1.49315
C          1.38078        1.53439       -0.73971
C          3.02488        0.68147        1.43454
C          2.49164       -1.10656       -0.65088
C         -1.70711       -1.46591       -1.34542
C         -3.44974       -0.92095        0.85359
C         -2.29020        1.24313       -0.52267
P         -1.83700       -0.40648        0.14568
P          1.60660        0.10882        0.40934
C         -0.11527       -2.23923        1.59319
O         -0.05704       -3.38989        1.68039
C          1.69013        1.48391       -2.10161
H          2.12800        0.58055       -2.53033
C          0.82858        2.71494       -0.22135
H          0.56356        2.75805        0.83934
C          1.43620        2.58769       -2.91802
H          1.66546        2.53282       -3.98553
C          0.61570        3.84453       -1.01261
C          0.10559        5.12457       -0.41783
H         -0.16225        4.99344        0.63941
H          0.87174        5.91500       -0.47637
H         -0.78802        5.49127       -0.94445
C          0.91173        3.75722       -2.38059
H          0.73263        4.62227       -3.02589
C          3.59952        1.95819        1.38244
H          3.21467        2.70171        0.68150
C          3.56364       -0.24381        2.33558
H          3.13428       -1.24848        2.39103
C          4.66789        2.29611        2.20353
H          5.11899        3.28964        2.16539
C          4.64086        0.07701        3.15750
H          5.03221       -0.67715        3.84078
C          5.19902        1.36038        3.09902
O          6.23578        1.77492        3.85590
C          6.80350        0.87950        4.76874
H          7.22125       -0.01156        4.26703
H          7.61788        1.41603        5.27222
H          6.07361        0.54681        5.52811
C          1.87162       -2.30447       -1.02829
H          0.86302       -2.52481       -0.68051
C          3.79460       -0.86960       -1.10371
H          4.30954        0.04864       -0.80925
C          2.52003       -3.22326       -1.84133
H          2.03491       -4.15546       -2.13629
C          4.45914       -1.77996       -1.92192
H          5.47407       -1.55760       -2.25243
C          3.81819       -2.96785       -2.29990
O          4.37086       -3.90964       -3.08976
C          5.67122       -3.71298       -3.56796
H          6.40448       -3.63275       -2.74604
H          5.91862       -4.59075       -4.17849
H          5.74643       -2.80861       -4.19773
C         -2.40623       -2.67213       -1.45692
H         -3.13113       -2.95823       -0.69213
C         -0.77277       -1.12904       -2.33219
H         -0.19571       -0.20711       -2.23132
C         -2.17201       -3.50849       -2.54728
H         -2.71788       -4.45154       -2.63091
C         -0.53907       -1.95032       -3.43783
C          0.49884       -1.57224       -4.45305
H          0.50657       -0.48734       -4.63482
H          1.50314       -1.85129       -4.09106
H          0.33561       -2.08395       -5.41229
C         -1.25361       -3.15030       -3.53152
H         -1.08282       -3.81354       -4.38412
C         -4.66559       -0.66061        0.19898
H         -4.66399       -0.11962       -0.75101
C         -3.48369       -1.59740        2.07134
H         -2.54060       -1.79294        2.58797
C         -5.86777       -1.07820        0.74272
H         -6.81887       -0.88241        0.24378
C         -4.68761       -2.02732        2.63206
H         -4.67332       -2.55583        3.58542
C         -5.88950       -1.76852        1.96618
O         -7.10398       -2.13411        2.41811
C         -7.19219       -2.82644        3.63190
H         -6.79969       -2.23003        4.47438
H         -8.25751       -3.02536        3.80426
H         -6.65053       -3.78812        3.59644
C         -2.53432        2.26251        0.41423
H         -2.45765        2.04296        1.48222
C         -2.41834        1.55417       -1.87442
H         -2.26416        0.78390       -2.63119
C         -2.87453        3.54132        0.01182
H         -3.06555        4.33453        0.73695
C         -2.73748        2.84676       -2.29697
H         -2.80358        3.05199       -3.36540
C         -2.95751        3.85049       -1.35378
O         -3.23381        5.13735       -1.65806
C         -3.32333        5.50221       -3.00691
H         -4.13101        4.95714       -3.52625
H         -3.54841        6.57602       -3.02911
H         -2.37428        5.32365       -3.54322
