104
Cat409.ts34.5.log	Energy: -2250902.3757212
C          0.60904        3.00558        1.28916
H          0.70814        3.94006        0.72895
H         -0.14786        3.05419        2.08053
C          1.77819        2.22179        1.51579
H          2.72614        2.51810        1.05488
H          1.93175        1.79281        2.51437
H          1.19902        0.70144        1.24363
Co         0.57025        1.39491        0.09997
C         -1.06714       -1.20582        1.47037
C         -2.37181        1.29948        1.88001
C         -2.46826        0.06143       -0.71296
C          0.50386       -0.99438       -2.26545
C          3.02599        0.31321       -2.04175
C          2.18696       -1.61385       -0.04566
P          1.56390       -0.16914       -1.00676
P         -1.28848        0.42977        0.65623
C          0.20601        2.40086       -1.26443
O         -0.10053        3.07746       -2.15258
C         -1.43762       -2.42429        0.88842
H         -1.97121       -2.44466       -0.06227
C         -0.36221       -1.23527        2.68178
H         -0.03301       -0.29168        3.12942
C         -1.09669       -3.62861        1.50392
H         -1.37997       -4.57437        1.03422
C         -0.02614       -2.43147        3.31997
C          0.71375       -2.41946        4.62643
H          1.48113       -1.63111        4.64626
H          0.02738       -2.22712        5.46763
H          1.20867       -3.38207        4.81918
C         -0.39732       -3.63586        2.70734
H         -0.12909       -4.58572        3.17777
H         -3.18643        0.63054        2.20293
H         -1.74850        1.49043        2.76977
C         -2.91541        2.61281        1.33358
H         -2.09368        3.17505        0.85862
H         -3.64050        2.40702        0.52724
C         -3.58107        3.47719        2.39469
H         -2.84904        3.69829        3.19321
H         -4.39171        2.90540        2.88269
C         -4.13966        4.78367        1.84863
H         -3.32550        5.34396        1.35605
H         -4.86991        4.55876        1.05101
C         -4.79267        5.65357        2.91040
H         -5.18636        6.58918        2.48500
H         -4.07470        5.92452        3.70132
H         -5.63212        5.12978        3.39582
H         -2.52687        0.99049       -1.30379
H         -1.94298       -0.64848       -1.37134
C         -3.86075       -0.45134       -0.36891
H         -3.80591       -1.22095        0.41979
H         -4.46776        0.36519        0.05778
C         -4.57523       -1.03186       -1.58225
H         -3.96418       -1.85449       -1.99856
H         -4.61838       -0.26941       -2.38119
C         -5.97801       -1.54168       -1.28648
H         -5.92606       -2.29207       -0.47747
H         -6.58778       -0.71331       -0.88414
C         -6.66847       -2.14366       -2.49966
H         -7.67948       -2.50499       -2.25749
H         -6.09753       -2.99713       -2.90041
H         -6.76459       -1.40492       -3.31167
C          0.00667       -0.22961       -3.32993
H          0.31392        0.81114       -3.45345
C          0.05623       -2.31335       -2.12617
H          0.42170       -2.93147       -1.30532
C         -0.91980       -0.77384       -4.21392
H         -1.30575       -0.16443       -5.03466
C         -0.89179       -2.86756       -2.99424
C         -1.37692       -4.27563       -2.80156
H         -1.00191       -4.94038       -3.59673
H         -1.04154       -4.68697       -1.83877
H         -2.47661       -4.32668       -2.83028
C         -1.37802       -2.07835       -4.04165
H         -2.12515       -2.48866       -4.72682
H          3.61179       -0.59370       -2.27235
H          2.61757        0.67333       -3.00043
C          3.88775        1.40154       -1.42119
H          3.23529        2.25615       -1.17544
H          4.29977        1.05825       -0.45666
C          5.02609        1.85665       -2.32194
H          4.61091        2.20086       -3.28693
H          5.67411        0.99495       -2.56669
C          5.87004        2.96668       -1.71087
H          5.21487        3.82075       -1.46419
H          6.28002        2.61868       -0.74596
C          7.00328        3.43215       -2.61060
H          7.59337        4.23372       -2.14091
H          6.61911        3.81969       -3.56797
H          7.69298        2.60521       -2.84531
H          1.30044       -2.06587        0.42786
H          2.59673       -2.35381       -0.75424
C          3.20369       -1.29016        1.03771
H          4.13120       -0.89260        0.59095
H          2.80548       -0.48529        1.67751
C          3.53366       -2.49939        1.90140
H          3.97249       -3.29550        1.27259
H          2.59245       -2.91795        2.30000
C          4.47638       -2.18484        3.05386
H          5.41746       -1.76803        2.65316
H          4.03487       -1.38007        3.66879
C          4.78030       -3.38900        3.93010
H          5.46175       -3.13254        4.75537
H          5.25127       -4.19783        3.34852
H          3.85905       -3.79942        4.37447
