64
Cat524.ts34.5.log	Energy: -2124653.8368804
C          1.51429       -3.92176       -0.78335
H          2.31742       -4.46291       -0.27517
H          0.56268       -4.46445       -0.78845
C          1.84521       -3.11601       -1.91307
H          2.89630       -2.98447       -2.19089
H          1.19255       -3.15758       -2.79354
H          0.92340       -1.77967       -1.63176
Co         1.44681       -1.99002       -0.26397
O         -1.28168       -0.43548       -0.45616
C         -1.77664       -3.10419        0.14933
C         -0.86052       -1.22204        2.13080
O          1.31657        0.97572        0.75284
C          3.79403        0.47906       -0.21374
C          1.57727        0.85501       -2.03929
P          2.02976        0.02924       -0.45689
P         -0.56173       -1.73225        0.38996
C          2.49705       -2.29743        1.08303
O          3.18232       -2.50487        1.98972
C         -2.60142       -0.11050       -0.47354
C         -3.16314        0.69420        0.52374
H         -2.53583        1.04919        1.34253
C         -3.39302       -0.53148       -1.54705
H         -2.93433       -1.13613       -2.33152
C         -4.51063        1.04272        0.46754
H         -4.96854        1.66642        1.23745
C         -4.73955       -0.18638       -1.60853
H         -5.37441       -0.50985       -2.43542
C         -5.28544        0.59232       -0.59418
F         -6.57536        0.92335       -0.64832
H         -1.20368       -4.00256        0.43433
C         -3.11640       -3.08832        0.87216
H         -3.72886       -2.21542        0.60943
H         -2.98763       -3.09000        1.96449
H         -1.90851       -3.18662       -0.94328
H         -3.69673       -3.98798        0.61392
H         -1.92965       -1.00290        2.27952
C         -0.37407       -2.25587        3.13698
H          0.70161       -2.45161        3.02748
H         -0.89969       -3.21778        3.02966
H         -0.30236       -0.27871        2.23989
H         -0.54506       -1.90301        4.16532
C          1.07543        2.31345        0.68667
C         -0.12330        2.77215        0.13300
H         -0.83110        2.04041       -0.25720
C          1.99348        3.22517        1.21389
H          2.91308        2.85186        1.66786
C         -0.39187        4.13650        0.07881
H         -1.31959        4.51624       -0.35319
C          1.72913        4.59185        1.16235
H          2.43119        5.32374        1.56598
C          0.54161        5.03162        0.58929
F          0.28832        6.33955        0.53723
H          4.02035        0.19992        0.82829
C          4.70946       -0.26077       -1.17719
H          4.52325        0.02757       -2.22382
H          4.55225       -1.34720       -1.09888
H          3.91512        1.57148       -0.29419
H          5.76722       -0.05096       -0.95910
H          0.47554        0.89145       -2.02475
C          2.19786        2.19303       -2.41107
H          3.29251        2.12424       -2.49932
H          1.96863        2.98249       -1.68275
H          1.82681        0.09138       -2.79494
H          1.81463        2.52592       -3.38807
