84
Cat618.ts34.5.log	Energy: -2337404.6378877
C          0.74026       -3.26140        1.21724
H          0.64409       -4.15068        0.58870
H          1.75327       -3.11246        1.60885
C         -0.36971       -2.85106        2.00886
H         -1.33358       -3.35981        1.89884
H         -0.18754       -2.52911        3.04163
H         -0.39214       -1.22049        1.77464
Co        -0.12033       -1.65514        0.37712
C          1.50003        0.97972       -1.03747
C          2.70901        0.05893        1.46548
C          2.93780       -1.51622       -0.91297
C         -2.16132        0.03715       -1.69772
C         -3.36315       -1.21686        0.62520
C         -1.89567        1.24550        0.93819
P         -1.81490       -0.38463        0.09285
P          1.70532       -0.54381        0.04110
C         -0.36005       -2.51899       -1.10725
O         -0.50482       -3.08391       -2.10659
H          0.63319        1.50771       -0.61493
H          1.18049        0.57415       -2.00982
C          2.65837        1.90986       -1.18435
C          3.69890        1.64845       -2.08619
H          3.64437        0.76788       -2.73030
C          2.75136        3.04358       -0.36722
H          1.94518        3.25726        0.34009
C          4.81033        2.48576       -2.14995
H          5.61502        2.26284       -2.85493
C          3.85949        3.88435       -0.43353
H          3.91460        4.76137        0.21597
C          4.89783        3.60426       -1.32058
H          5.77051        4.25971       -1.37162
C          2.17628       -0.08630        2.75128
C          3.97681        0.64660        1.32710
C          4.11856        0.96646        3.71982
C          4.67121        1.09937        2.44555
C          2.87059        0.36708        3.87238
H          1.19962       -0.56404        2.86290
H          2.43524        0.24514        4.86712
H          4.66684        1.32390        4.59507
H          5.65291        1.56173        2.31785
H          4.43130        0.74635        0.34025
C          4.05112       -2.11007       -0.30660
C          2.68706       -1.79531       -2.26485
C          4.66041       -3.18296       -2.38656
C          3.54371       -2.61114       -2.99708
C          4.90450       -2.93574       -1.03821
H          4.25921       -1.92523        0.74913
H          5.76895       -3.38770       -0.54552
H          5.33168       -3.82677       -2.95970
H          3.33047       -2.81075       -4.04997
H          1.80008       -1.38705       -2.75544
H         -2.32062       -0.93596       -2.18662
H         -1.20040        0.41720       -2.07385
C         -3.26600        0.99622       -1.99697
C         -2.98081        2.34589       -2.23810
H         -1.93941        2.67906       -2.24354
C         -4.60668        0.58738       -1.98922
H         -4.84884       -0.46150       -1.80401
C         -4.00359        3.26744       -2.44835
H         -3.75901        4.31658       -2.63101
C         -5.63115        1.50886       -2.19278
H         -6.67089        1.17301       -2.17703
C         -5.33426        2.85329       -2.41849
H         -6.13907        3.57467       -2.57862
C         -3.77684       -2.35589       -0.08224
C         -4.06776       -0.84847        1.77519
C         -5.60389       -2.68979        1.46242
C         -5.18091       -1.58102        2.18979
C         -4.89444       -3.07738        0.32395
H         -3.21084       -2.69375       -0.95471
H         -5.20725       -3.95605       -0.24532
H         -6.47805       -3.25987        1.78563
H         -5.72008       -1.27791        3.09068
H         -3.74723        0.01768        2.35733
C         -0.76718        1.69362        1.63250
C         -3.03364        2.06772        0.90389
C         -1.88311        3.75413        2.20219
C         -3.02291        3.31154        1.53035
C         -0.75452        2.93928        2.25758
H          0.10733        1.04534        1.69094
H          0.14035        3.26337        2.79477
H         -1.88002        4.73198        2.69016
H         -3.91564        3.94004        1.48994
H         -3.93915        1.73560        0.39413
