100
Cat619.ts34.5.log	Energy: -2624675.6201128
C         -0.39145       -3.38912       -1.54755
H         -0.20219       -4.35240       -1.06437
H         -1.38921       -3.31288       -1.99577
C          0.68838       -2.72172       -2.18718
H          1.70314       -3.12648       -2.12194
H          0.50288       -2.23785       -3.15408
H          0.44572       -1.14589       -1.68314
Co         0.22228       -1.84836       -0.40548
C         -1.99970        0.07673       -1.89498
C         -3.18408       -1.61052        0.21961
C         -1.71445        0.60807        1.01490
C          2.18590       -0.07314        1.83345
C          3.42775       -0.87215       -0.60135
C          1.45595        1.21089       -0.69438
P          1.77378       -0.43473        0.04438
P         -1.64005       -0.72654       -0.24357
C          0.40869       -2.81486        1.02588
O          0.51830       -3.41053        2.01223
H         -1.90094       -0.78451       -2.57668
H         -1.10798        0.70013       -2.06737
C         -3.24483        0.84293       -2.22223
C         -3.17885        2.21996       -2.48204
H         -2.20757        2.72251       -2.44908
C         -4.48903        0.20859       -2.33266
H         -4.55846       -0.86863       -2.16869
C         -4.32400        2.94753       -2.79856
H         -4.24707        4.01915       -3.00010
C         -5.63598        0.93474       -2.64593
H         -6.59693        0.41939       -2.71845
C         -5.56112        2.30861       -2.87109
H         -6.46142        2.87639       -3.11775
C         -4.35793       -0.92425        0.57903
H         -4.37207        0.16755        0.58142
C         -3.19627       -3.00416        0.28184
H         -2.27938       -3.54932        0.05387
C         -5.50404       -1.60944        0.94444
H         -6.41796       -1.08113        1.22262
C         -4.34250       -3.71002        0.65010
H         -4.30636       -4.79889        0.69014
C         -5.50963       -3.01253        0.97633
O         -6.66807       -3.59440        1.34243
C         -6.72829       -4.99120        1.41237
H         -6.01670       -5.39675        2.15309
H         -7.74888       -5.24746        1.72398
H         -6.52555       -5.46093        0.43358
C         -1.23321        0.28019        2.29451
H         -0.85074       -0.72732        2.48049
C         -2.21479        1.89430        0.81791
H         -2.61415        2.18489       -0.15275
C         -1.22909        1.20792        3.32308
H         -0.85423        0.95491        4.31675
C         -2.21337        2.84402        1.84269
H         -2.61167        3.83918        1.64174
C         -1.71139        2.50808        3.10326
O         -1.65906        3.34925        4.15447
C         -2.12908        4.65712        3.99441
H         -3.20085        4.67997        3.72892
H         -1.99184        5.16238        4.95880
H         -1.56200        5.20589        3.22098
H          2.10989       -1.05215        2.32967
H          1.36830        0.54360        2.23317
C          3.53096        0.53760        2.06885
C          3.73537        1.92155        2.00682
H          2.88603        2.58637        1.83855
C          4.64161       -0.28706        2.29222
H          4.50045       -1.36997        2.33737
C          5.01281        2.46161        2.14490
H          5.15019        3.54448        2.09077
C          5.91812        0.24911        2.42962
H          6.76992       -0.41532        2.59321
C          6.11041        1.62789        2.35080
H          7.11224        2.05146        2.45401
C          4.39119        0.08204       -0.96547
H          4.13865        1.14444       -0.95030
C          3.79331       -2.21854       -0.60376
H          3.04770       -2.96570       -0.31697
C          5.67210       -0.30380       -1.32228
H          6.42963        0.43100       -1.60058
C          5.08360       -2.62159       -0.94730
H          5.33328       -3.68272       -0.93273
C          6.03243       -1.65963       -1.31141
O          7.30195       -1.93999       -1.66361
C          7.72386       -3.27457       -1.66255
H          7.14506       -3.88970       -2.37410
H          8.77692       -3.27251       -1.97133
H          7.64741       -3.72909       -0.65886
C          1.58681        1.35633       -2.08831
H          2.02943        0.54747       -2.67613
C          0.87740        2.26088        0.01562
H          0.72186        2.18413        1.09307
C          1.14516        2.49580       -2.73857
H          1.23497        2.60456       -3.82095
C          0.42798        3.41792       -0.62470
H         -0.03958        4.20012       -0.02717
C          0.54466        3.53489       -2.01023
O          0.09297        4.58400       -2.72802
C         -0.55124        5.62883       -2.05522
H          0.11552        6.12141       -1.32564
H         -0.84574        6.36096       -2.81767
H         -1.45663        5.27848       -1.52722
