100
Cat695.ts34.5.log	Energy: -2343461.1732259
C         -0.85187       -4.00472       -0.50309
H         -0.81118       -4.79776        0.24894
H         -1.81435       -3.95771       -1.02554
C          0.33469       -3.71054       -1.24189
H          1.26389       -4.23385       -0.98593
H          0.24541       -3.55870       -2.32520
H          0.40244       -2.09117       -1.24381
Co        -0.05906       -2.29419        0.16593
C         -2.37923       -0.47837       -1.71923
C         -3.28951       -1.87557        0.66479
C         -1.79724        0.64118        0.87637
C          1.88495       -0.35416        2.19282
C          3.24360       -2.07990        0.24285
C          1.78930        0.39005       -0.65078
P          1.67720       -1.07629        0.50465
P         -1.79545       -1.00400       -0.04802
C         -0.14427       -2.85659        1.79818
O         -0.25097       -3.19872        2.89934
H         -3.30212        0.11801       -1.62772
H         -1.61101        0.21680       -2.09755
C         -2.55714       -1.62375       -2.70407
H         -3.29779       -2.34550       -2.31717
H         -1.61054       -2.18267       -2.78246
C         -2.99467       -1.14542       -4.07994
H         -3.95705       -0.61100       -4.02861
H         -2.25790       -0.44860       -4.51050
H         -3.11371       -1.98449       -4.78239
H         -3.43421       -2.75053        0.01256
H         -2.93518       -2.27403        1.62724
C         -4.56317       -1.11714        0.84530
C         -4.93796       -0.65571        2.11436
H         -4.30376       -0.87993        2.97642
C         -5.41027       -0.84270       -0.23575
H         -5.14812       -1.22224       -1.22714
C         -6.11739        0.06491        2.28600
H         -6.40429        0.40884        3.28274
C         -6.58713       -0.10390       -0.08719
C         -7.43521        0.22907       -1.27973
H         -7.09334        1.16834       -1.74658
H         -7.37861       -0.55586       -2.04783
H         -8.49054        0.36524       -1.00274
C         -6.93464        0.34482        1.19322
H         -7.86024        0.90970        1.33459
H         -2.32504        0.45757        1.82459
H         -0.74481        0.82068        1.13617
C         -2.36375        1.83910        0.17101
C         -1.56116        2.60042       -0.68791
H         -0.50667        2.34764       -0.81982
C         -3.70612        2.20884        0.32210
H         -4.34497        1.63008        0.99196
C         -2.09227        3.68479       -1.38194
H         -1.45087        4.26617       -2.04892
C         -4.25489        3.29678       -0.36359
C         -5.69023        3.68839       -0.15923
H         -6.25368        2.88771        0.33897
H         -5.76739        4.59222        0.46772
H         -6.18426        3.91784       -1.11595
C         -3.43134        4.02914       -1.22728
H         -3.84380        4.88023       -1.77661
H          1.14700        0.46376        2.24908
H          1.51274       -1.12339        2.88890
C          3.25327        0.14114        2.64607
H          3.71771        0.76384        1.86703
H          3.91918       -0.72604        2.78886
C          3.17117        0.93041        3.94334
H          2.56757        1.84174        3.80721
H          2.70641        0.33770        4.74770
H          4.16888        1.24231        4.28790
H          3.54370       -2.41753        1.24629
H          2.88369       -2.97139       -0.28705
C          4.40005       -1.49219       -0.50504
C          4.40189       -1.50887       -1.90790
H          3.56180       -1.96193       -2.44206
C          5.50150       -0.93676        0.15084
H          5.51940       -0.92543        1.24306
C          5.46782       -0.96753       -2.61973
H          5.45766       -0.98568       -3.71226
C          6.58472       -0.39138       -0.54655
C          7.74984        0.18745        0.20218
H          7.41139        0.87121        0.99563
H          8.34163       -0.60569        0.68756
H          8.42277        0.74482       -0.46435
C          6.55264       -0.40851       -1.94458
H          7.38821        0.01369       -2.50949
H          2.18173       -0.01017       -1.59766
H          0.73124        0.62433       -0.83791
C          2.53284        1.62314       -0.23338
C          1.94602        2.54709        0.64048
H          0.92514        2.39348        0.99749
C          3.82718        1.88169       -0.70170
H          4.28776        1.18181       -1.40200
C          2.65429        3.66947        1.06343
H          2.18511        4.37805        1.75040
C          4.54882        3.00686       -0.29447
C          5.92886        3.27122       -0.82406
H          6.26673        2.45669       -1.47871
H          5.95839        4.20869       -1.40238
H          6.65856        3.37523       -0.00559
C          3.95021        3.89386        0.60955
H          4.50055        4.77725        0.94559
