98
Cat754.ts34.5.log	Energy: -2779319.6571855
C         -0.47728        2.04470       -2.85872
H         -0.50354        1.66192       -3.88360
H         -1.36630        2.61761       -2.57649
C          0.77805        2.41140       -2.30241
H          1.69357        2.21425       -2.86991
H          0.85307        3.32845       -1.70744
H          0.61282        1.80899       -0.74227
Co         0.09684        0.66730       -1.51303
C         -1.35645        1.90652        1.27623
C         -3.27849        1.21115       -0.78114
C         -1.97235       -0.85468        0.73330
C          1.41775       -1.95079        0.29465
C          3.10034       -0.80288       -1.67892
C          2.62866        0.69582        0.78934
P          1.72759       -0.30396       -0.49791
P         -1.58764        0.73803       -0.12910
C         -0.10428       -0.54582       -2.73629
O         -0.20752       -1.31180       -3.59823
C         -1.01822        1.48222        2.56418
H         -0.96729        0.41351        2.78169
C         -1.38642        3.29516        1.02630
O         -1.63096        3.66000       -0.24885
C         -1.53287        5.00960       -0.61708
H         -2.30513        5.62564       -0.12512
H         -1.68426        5.04613       -1.70307
H         -0.53552        5.41852       -0.38292
C         -0.75722        2.39012        3.59215
H         -0.50017        2.02637        4.58889
C         -1.16078        4.21106        2.05768
H         -1.21598        5.28290        1.86589
C         -0.84644        3.75485        3.33813
H         -0.66437        4.47855        4.13590
H         -3.93254        1.47807        0.06014
H         -3.12240        2.11813       -1.37977
C         -3.88507        0.10827       -1.59617
C         -3.36159       -0.22199       -2.85362
H         -2.53505        0.36376       -3.25598
C         -4.96196       -0.64432       -1.11065
H         -5.39493       -0.40185       -0.13773
C         -3.87125       -1.28408       -3.59429
H         -3.45396       -1.55068       -4.56673
C         -5.49047       -1.70495       -1.84242
H         -6.32876       -2.29445       -1.46690
C         -4.92955       -2.01817       -3.07374
F         -5.42365       -3.04102       -3.77434
H         -1.96499       -1.58246       -0.09024
H         -1.07027       -1.10708        1.31589
C         -3.22540       -1.07414        1.54034
C         -3.79212       -2.35742        1.52957
H         -3.31122       -3.14442        0.94279
C         -3.87332       -0.08518        2.29002
H         -3.46952        0.92661        2.32512
C         -4.95861       -2.65109        2.22709
H         -5.40060       -3.64900        2.21081
C         -5.04699       -0.35812        2.99187
H         -5.55562        0.41518        3.57044
C         -5.57781       -1.63960        2.95158
F         -6.70107       -1.90587        3.61831
C          0.45721       -2.74685       -0.33928
H         -0.08260       -2.32888       -1.18962
C          2.11614       -2.51618        1.38606
O          3.08063       -1.77676        1.96287
C          3.89293       -2.33674        2.95804
H          3.31775       -2.58281        3.86750
H          4.64411       -1.57651        3.20635
H          4.41034       -3.24095        2.59673
C          0.16935       -4.04562        0.07272
H         -0.58223       -4.63368       -0.45761
C          1.80868       -3.81049        1.82550
H          2.33871       -4.23860        2.67594
C          0.84316       -4.56950        1.17043
H          0.62501       -5.57982        1.52491
H          2.57900       -1.36557       -2.46782
H          3.45096        0.13184       -2.14184
C          4.21469       -1.60469       -1.08835
C          5.36260       -0.99911       -0.55997
H          5.49248        0.08254       -0.64183
C          4.10407       -2.99919       -0.98891
H          3.22406       -3.49809       -1.40160
C          6.35469       -1.74528        0.07144
H          7.24965       -1.27598        0.48392
C          5.08418       -3.76138       -0.36096
H          4.99684       -4.84616       -0.27749
C          6.19552       -3.12102        0.17231
F          7.12879       -3.84345        0.79556
H          2.04318        0.58688        1.71325
H          3.59753        0.21625        0.97637
C          2.78763        2.14696        0.45088
C          3.70060        2.58692       -0.51684
H          4.32602        1.86385       -1.04354
C          2.01792        3.11279        1.10907
H          1.30767        2.80079        1.87674
C          3.83097        3.93535       -0.83774
H          4.53714        4.27795       -1.59605
C          2.13736        4.46659        0.80628
H          1.54266        5.21706        1.32943
C          3.03925        4.86228       -0.17203
F          3.15064        6.15709       -0.47358
