114
Cat806.ts34.5.log	Energy: -2583919.4702425
C          0.66211       -0.20474       -3.31256
H          0.53983        0.61375       -4.02780
H          1.57507       -0.78736       -3.48885
C         -0.51098       -0.89321       -2.86705
H         -1.49451       -0.51471       -3.17086
H         -0.50821       -1.99069       -2.85783
H         -0.22036       -1.09366       -1.33072
Co         0.24818        0.31685       -1.43011
C          3.19684       -1.57110       -1.17854
C          3.36864        1.22676       -0.80405
C          2.34324       -0.38760        1.33740
C         -1.10750        2.03536        1.26432
C         -2.78059        1.44532       -1.07736
C         -2.19734       -0.45828        1.09533
P         -1.37843        0.74407       -0.05889
P          2.14680       -0.17237       -0.50269
C          0.43632        1.96676       -1.93530
O          0.62194        3.01998       -2.37141
H          3.24345       -1.39023       -2.26412
H          4.21356       -1.43971       -0.78183
C          2.71620       -2.95491       -0.89496
C          3.25436       -3.68983        0.16672
H          4.07022       -3.26542        0.75757
C          1.68129       -3.52538       -1.64635
H          1.27612       -2.96767       -2.49374
C          2.73886       -4.94332        0.48700
H          3.15387       -5.50184        1.32934
C          1.15417       -4.78300       -1.34178
C          0.06114       -5.38485       -2.17633
H         -0.42743       -4.62904       -2.80788
H          0.46011       -6.16519       -2.84514
H         -0.70800       -5.85828       -1.54787
C          1.68941       -5.48202       -0.25176
H          1.28388       -6.46265        0.01214
H          3.26890        1.40402       -1.88616
H          2.91151        2.10448       -0.32631
C          4.81731        1.05668       -0.45116
C          5.66549        0.47965       -1.41221
H          5.24464        0.21373       -2.38538
C          5.37995        1.45471        0.78086
C          4.59995        2.15464        1.85837
H          4.25481        1.45262        2.63371
H          3.71511        2.67042        1.46664
H          5.22675        2.90437        2.36255
C          7.01297        0.24612       -1.16872
H          7.63812       -0.20710       -1.94154
C          6.74217        1.21405        1.01093
H          7.17369        1.52948        1.96538
C          7.55619        0.60634        0.06270
H          8.61374        0.43422        0.27608
H          3.33896       -0.82390        1.53941
H          2.39673        0.64296        1.70856
C          1.28559       -1.12981        2.11178
C          0.65800       -2.27040        1.59846
H          0.88525       -2.59650        0.58561
C          0.94595       -0.70228        3.41615
C          1.59540        0.49546        4.05062
H          2.68632        0.36664        4.13883
H          1.19858        0.66667        5.06053
H          1.43106        1.41994        3.47326
C         -0.26214       -3.00114        2.34584
H         -0.72904       -3.88557        1.90819
C         -0.00169       -1.43103        4.14495
H         -0.26537       -1.09164        5.15054
C         -0.60012       -2.57733        3.62678
H         -1.33247       -3.12990        4.21994
H         -2.08318        2.25786        1.72289
H         -0.51030        1.50962        2.02582
C         -0.41065        3.28167        0.82181
C          0.96414        3.43150        1.02701
H          1.50806        2.64350        1.55133
C         -1.09669        4.31357        0.17154
H         -2.17594        4.23143        0.01852
C          1.63095        4.56623        0.57596
H          2.70543        4.67389        0.74580
C         -0.44339        5.45319       -0.30523
C         -1.19642        6.50417       -1.06615
H         -2.25781        6.53076       -0.78006
H         -0.77029        7.50526       -0.90627
H         -1.15191        6.29726       -2.14852
C          0.93464        5.56706       -0.09447
H          1.46531        6.45111       -0.45757
H         -2.41845        2.45176       -1.34436
H         -2.73385        0.86836       -2.00827
C         -4.18203        1.49002       -0.54716
C         -4.54579        2.42455        0.43274
H         -3.79606        3.12336        0.80916
C         -5.17393        0.61936       -1.05371
C         -4.87305       -0.37884       -2.13353
H         -4.08295       -1.08276       -1.83158
H         -4.53850        0.11710       -3.05945
H         -5.76623       -0.96972       -2.37606
C         -5.84573        2.50520        0.92628
H         -6.09525        3.24729        1.68818
C         -6.47502        0.71384       -0.54734
H         -7.23891        0.03790       -0.94106
C         -6.81864        1.64026        0.43375
H         -7.84416        1.68809        0.80736
H         -1.37637       -0.81258        1.73755
H         -2.84762        0.15546        1.73107
C         -2.97113       -1.62735        0.56053
C         -2.39393       -2.51823       -0.35185
H         -1.36242       -2.35349       -0.66203
C         -4.28352       -1.87910        1.01837
C         -4.92579       -1.03430        2.07994
H         -4.98456        0.02468        1.78916
H         -4.35879       -1.08632        3.02391
H         -5.94909       -1.37706        2.28418
C         -3.10245       -3.60197       -0.86438
H         -2.62707       -4.27110       -1.58420
C         -4.98408       -2.96862        0.48876
H         -6.00487       -3.15281        0.83500
C         -4.41409       -3.82070       -0.45338
H         -4.98865       -4.66021       -0.85213
